                         Program Version 5.0.3 -  RELEASE  -
|  1> !uks pbe nori defgrid3 verytightscf
|  2>
|  3> %pal nprocs 16 end
|  4>
|  5> %scf maxiter 400 end
|  6>
|  7> %basis
|  8>   newgto Ag "sarc-zora-tzvpp" end
|  9>   delecp Ag
| 10>   newgto H "zora-def2-qzvpp" end
| 11>   delecp H
| 12> end
| 13>
| 14> *xyz 0 1
| 15> Ag 0.0000000000 0.0000000000 0.0000000000
| 16> H 0.0000000000 0.0000000000 1.9310000000
| 17> *
| 18>
| 19>                          ****END OF INPUT****

CARTESIAN COORDINATES (ANGSTROEM)
---------------------------------
  Ag     0.000000    0.000000    0.000000
  H      0.000000    0.000000    1.931000

 Total Charge           Charge          ....    0
 Multiplicity           Mult            ....    1
 Number of Electrons    NEL             ....   48
 Basis Dimension        Dim             ....  128

ORBITAL ENERGIES
----------------
                 SPIN UP ORBITALS
  NO   OCC          E(Eh)            E(eV)
   0   1.0000    -900.623882    -24507.2217
   1   1.0000    -129.947890     -3536.0618
   2   1.0000    -120.980075     -3292.0352
   3   1.0000    -120.980075     -3292.0352
   4   1.0000    -120.979742     -3292.0261
   5   1.0000     -23.734215      -645.8408
   6   1.0000     -20.095512      -546.8267
   7   1.0000     -20.095512      -546.8267
   8   1.0000     -20.092614      -546.7478
   9   1.0000     -13.387957      -364.3048
  10   1.0000     -13.387957      -364.3048
  11   1.0000     -13.385930      -364.2497
  12   1.0000     -13.385930      -364.2497
  13   1.0000     -13.385525      -364.2387
  14   1.0000      -3.237434       -88.0950
  15   1.0000      -2.095009       -57.0081
  16   1.0000      -2.094009       -56.9809
  17   1.0000      -2.094009       -56.9809
  18   1.0000      -0.317215        -8.6319
  19   1.0000      -0.299617        -8.1530
  20   1.0000      -0.299617        -8.1530
  21   1.0000      -0.298009        -8.1092
  22   1.0000      -0.298009        -8.1092
  23   1.0000      -0.206901        -5.6301
  24   0.0000      -0.110122        -2.9966
  25   0.0000      -0.020572        -0.5598
  26   0.0000      -0.020572        -0.5598
  27   0.0000       0.059248         1.6122
  28   0.0000       0.112916         3.0726

                 SPIN DOWN ORBITALS
  NO   OCC          E(Eh)            E(eV)
   0   1.0000    -900.623882    -24507.2217
   1   1.0000    -129.947890     -3536.0618
   2   1.0000    -120.980075     -3292.0352
   3   1.0000    -120.980075     -3292.0352
   4   1.0000    -120.979742     -3292.0261
   5   1.0000     -23.734215      -645.8408
   6   1.0000     -20.095512      -546.8267
   7   1.0000     -20.095512      -546.8267
   8   1.0000     -20.092614      -546.7478
   9   1.0000     -13.387957      -364.3048
  10   1.0000     -13.387957      -364.3048
  11   1.0000     -13.385930      -364.2497
  12   1.0000     -13.385930      -364.2497
  13   1.0000     -13.385525      -364.2387
  14   1.0000      -3.237434       -88.0950
  15   1.0000      -2.095009       -57.0081
  16   1.0000      -2.094009       -56.9809
  17   1.0000      -2.094009       -56.9809
  18   1.0000      -0.317215        -8.6319
  19   1.0000      -0.299617        -8.1530
  20   1.0000      -0.299617        -8.1530
  21   1.0000      -0.298009        -8.1092
  22   1.0000      -0.298009        -8.1092
  23   1.0000      -0.206901        -5.6301
  24   0.0000      -0.110122        -2.9966
  25   0.0000      -0.020572        -0.5598
  26   0.0000      -0.020572        -0.5598
  27   0.0000       0.059248         1.6122
  28   0.0000       0.112916         3.0726

MULLIKEN ATOMIC CHARGES AND SPIN POPULATIONS
--------------------------------------------
   0 Ag:    0.261303    0.000000
   1 H :   -0.261303    0.000000
Sum of atomic charges         :   -0.0000000

LOEWDIN ATOMIC CHARGES AND SPIN POPULATIONS
-------------------------------------------
   0 Ag:    0.227629    0.000000
   1 H :   -0.227629    0.000000

  Mayer bond orders larger than 0.100000
B(  0-Ag,  1-H ) :   0.9693

FINAL SINGLE POINT ENERGY     -5197.401413936514

DIPOLE MOMENT
-------------
                                X             Y             Z
Electronic contribution:      0.00000      -0.00000      -3.31712
Nuclear contribution   :      0.00000       0.00000       2.02746
                        -----------------------------------------
Total Dipole Moment    :      0.00000      -0.00000      -1.28965
                        -----------------------------------------
Magnitude (a.u.)       :      1.28965
Magnitude (Debye)      :      3.27803

Rotational constants in cm-1:     0.000000     4.527008     4.527008
Rotational constants in MHz :     0.000000 135716.290347 135716.290347

                             ****ORCA TERMINATED NORMALLY****
TOTAL RUN TIME: 0 days 0 hours 0 minutes 11 seconds 333 msec
