                         Program Version 5.0.3 -  RELEASE  -
|  1> !uks pbe nori defgrid3 verytightscf
|  2>
|  3> %pal nprocs 16 end
|  4>
|  5> %scf maxiter 400 end
|  6>
|  7> %basis
|  8>   newgto Ag "sarc-zora-tzvpp" end
|  9>   delecp Ag
| 10>   newgto O "zora-def2-qzvpp" end
| 11>   delecp O
| 12> end
| 13>
| 14> *xyz 0 2
| 15> Ag 0.0000000000 0.0000000000 0.0000000000
| 16> O 0.0000000000 0.0000000000 1.9310000000
| 17> *
| 18>
| 19>                          ****END OF INPUT****

CARTESIAN COORDINATES (ANGSTROEM)
---------------------------------
  Ag     0.000000    0.000000    0.000000
  O      0.000000    0.000000    1.931000

 Total Charge           Charge          ....    0
 Multiplicity           Mult            ....    2
 Number of Electrons    NEL             ....   55
 Basis Dimension        Dim             ....  156

ORBITAL ENERGIES
----------------
                 SPIN UP ORBITALS
  NO   OCC          E(Eh)            E(eV)
   0   1.0000    -900.646431    -24507.8353
   1   1.0000    -129.971917     -3536.7157
   2   1.0000    -121.004511     -3292.7001
   3   1.0000    -121.003645     -3292.6766
   4   1.0000    -121.003137     -3292.6627
   5   1.0000     -23.758615      -646.5048
   6   1.0000     -20.121637      -547.5376
   7   1.0000     -20.118914      -547.4635
   8   1.0000     -20.116252      -547.3910
   9   1.0000     -18.753634      -510.3123
  10   1.0000     -13.413083      -364.9885
  11   1.0000     -13.412885      -364.9832
  12   1.0000     -13.411511      -364.9458
  13   1.0000     -13.409253      -364.8843
  14   1.0000     -13.408991      -364.8772
  15   1.0000      -3.264299       -88.8261
  16   1.0000      -2.125047       -57.8255
  17   1.0000      -2.122018       -57.7430
  18   1.0000      -2.116520       -57.5934
  19   1.0000      -0.808732       -22.0067
  20   1.0000      -0.357702        -9.7336
  21   1.0000      -0.351315        -9.5598
  22   1.0000      -0.334814        -9.1108
  23   1.0000      -0.320149        -8.7117
  24   1.0000      -0.320147        -8.7116
  25   1.0000      -0.266285        -7.2460
  26   1.0000      -0.225605        -6.1390
  27   1.0000      -0.212351        -5.7784
  28   0.0000      -0.129555        -3.5254
  29   0.0000      -0.017127        -0.4660
  30   0.0000      -0.012103        -0.3293
  31   0.0000       0.039254         1.0682
  32   0.0000       0.117617         3.2005

                 SPIN DOWN ORBITALS
  NO   OCC          E(Eh)            E(eV)
   0   1.0000    -900.646473    -24507.8365
   1   1.0000    -129.971205     -3536.6963
   2   1.0000    -121.003857     -3292.6823
   3   1.0000    -121.002943     -3292.6575
   4   1.0000    -121.002918     -3292.6568
   5   1.0000     -23.758294      -646.4961
   6   1.0000     -20.121131      -547.5238
   7   1.0000     -20.118781      -547.4599
   8   1.0000     -20.115720      -547.3766
   9   1.0000     -18.730474      -509.6821
  10   1.0000     -13.412691      -364.9779
  11   1.0000     -13.412464      -364.9717
  12   1.0000     -13.410091      -364.9071
  13   1.0000     -13.408751      -364.8707
  14   1.0000     -13.408619      -364.8671
  15   1.0000      -3.261648       -88.7539
  16   1.0000      -2.121577       -57.7310
  17   1.0000      -2.118774       -57.6548
  18   1.0000      -2.115549       -57.5670
  19   1.0000      -0.748840       -20.3770
  20   1.0000      -0.347627        -9.4594
  21   1.0000      -0.332627        -9.0512
  22   1.0000      -0.332417        -9.0455
  23   1.0000      -0.319470        -8.6932
  24   1.0000      -0.319421        -8.6919
  25   1.0000      -0.211046        -5.7428
  26   1.0000      -0.192320        -5.2333
  27   0.0000      -0.166063        -4.5188
  28   0.0000      -0.125728        -3.4212
  29   0.0000      -0.014204        -0.3865
  30   0.0000      -0.013285        -0.3615
  31   0.0000       0.041646         1.1332

MULLIKEN ATOMIC CHARGES AND SPIN POPULATIONS
--------------------------------------------
   0 Ag:    0.546313   -0.012002
   1 O :   -0.546313    1.012002
Sum of atomic charges         :   -0.0000000

LOEWDIN ATOMIC CHARGES AND SPIN POPULATIONS
-------------------------------------------
   0 Ag:    0.301209    0.019639
   1 O :   -0.301209    0.980361

  Mayer bond orders larger than 0.100000
B(  0-Ag,  1-O ) :   1.0012

FINAL SINGLE POINT ENERGY     -5271.925481918376

DIPOLE MOMENT
-------------
                                X             Y             Z
Electronic contribution:      0.00000       0.00000      -5.09682
Nuclear contribution   :      0.00000       0.00000       3.27016
                        -----------------------------------------
Total Dipole Moment    :      0.00000       0.00000      -1.82666
                        -----------------------------------------
Magnitude (a.u.)       :      1.82666
Magnitude (Debye)      :      4.64299

Rotational constants in cm-1:     0.000000     0.324490     0.324490
Rotational constants in MHz :     0.000000  9727.968839  9727.968839

                             ****ORCA TERMINATED NORMALLY****
TOTAL RUN TIME: 0 days 0 hours 0 minutes 38 seconds 137 msec
