                         Program Version 5.0.3 -  RELEASE  -
|  1> !uks pbe nori defgrid3 verytightscf
|  2>
|  3> %pal nprocs 16 end
|  4>
|  5> %scf maxiter 400 end
|  6>
|  7> %basis
|  8>   newgto I "sarc-zora-tzvpp" end
|  9>   delecp I
| 10>   newgto I "sarc-zora-tzvpp" end
| 11>   delecp I
| 12> end
| 13>
| 14> *xyz 0 1
| 15> I 0.0000000000 0.0000000000 0.0000000000
| 16> I 0.0000000000 0.0000000000 2.6630000000
| 17> *
| 18>
| 19>                          ****END OF INPUT****

CARTESIAN COORDINATES (ANGSTROEM)
---------------------------------
  I      0.000000    0.000000    0.000000
  I      0.000000    0.000000    2.663000

 Total Charge           Charge          ....    0
 Multiplicity           Mult            ....    1
 Number of Electrons    NEL             ....  106
 Basis Dimension        Dim             ....  174

ORBITAL ENERGIES
----------------
                 SPIN UP ORBITALS
  NO   OCC          E(Eh)            E(eV)
   0   1.0000   -1161.501906    -31606.0737
   1   1.0000   -1161.501904    -31606.0736
   2   1.0000    -175.109344     -4764.9675
   3   1.0000    -175.109344     -4764.9675
   4   1.0000    -164.645253     -4480.2251
   5   1.0000    -164.645253     -4480.2251
   6   1.0000    -164.642360     -4480.1464
   7   1.0000    -164.642360     -4480.1464
   8   1.0000    -164.642360     -4480.1464
   9   1.0000    -164.642360     -4480.1464
  10   1.0000     -35.299843      -960.5576
  11   1.0000     -35.299843      -960.5576
  12   1.0000     -30.860979      -839.7699
  13   1.0000     -30.860977      -839.7699
  14   1.0000     -30.853907      -839.5775
  15   1.0000     -30.853907      -839.5775
  16   1.0000     -30.853904      -839.5774
  17   1.0000     -30.853904      -839.5774
  18   1.0000     -22.636603      -615.9733
  19   1.0000     -22.636579      -615.9726
  20   1.0000     -22.635014      -615.9300
  21   1.0000     -22.635014      -615.9300
  22   1.0000     -22.635000      -615.9297
  23   1.0000     -22.635000      -615.9297
  24   1.0000     -22.630319      -615.8023
  25   1.0000     -22.630319      -615.8023
  26   1.0000     -22.630316      -615.8022
  27   1.0000     -22.630316      -615.8022
  28   1.0000      -6.145929      -167.2392
  29   1.0000      -6.145910      -167.2387
  30   1.0000      -4.599707      -125.1644
  31   1.0000      -4.599497      -125.1587
  32   1.0000      -4.583774      -124.7308
  33   1.0000      -4.583774      -124.7308
  34   1.0000      -4.583761      -124.7305
  35   1.0000      -4.583761      -124.7305
  36   1.0000      -1.953186       -53.1489
  37   1.0000      -1.949045       -53.0362
  38   1.0000      -1.947052       -52.9820
  39   1.0000      -1.947052       -52.9820
  40   1.0000      -1.945930       -52.9514
  41   1.0000      -1.945930       -52.9514
  42   1.0000      -1.933770       -52.6206
  43   1.0000      -1.933769       -52.6205
  44   1.0000      -1.933672       -52.6179
  45   1.0000      -1.933672       -52.6179
  46   1.0000      -0.654118       -17.7995
  47   1.0000      -0.559085       -15.2135
  48   1.0000      -0.354717        -9.6523
  49   1.0000      -0.294549        -8.0151
  50   1.0000      -0.294549        -8.0151
  51   1.0000      -0.232574        -6.3287
  52   1.0000      -0.232574        -6.3287
  53   0.0000      -0.158374        -4.3096
  54   0.0000       0.015931         0.4335
  55   0.0000       0.021528         0.5858
  56   0.0000       0.025794         0.7019
  57   0.0000       0.025794         0.7019

                 SPIN DOWN ORBITALS
  NO   OCC          E(Eh)            E(eV)
   0   1.0000   -1161.501906    -31606.0737
   1   1.0000   -1161.501904    -31606.0736
   2   1.0000    -175.109344     -4764.9675
   3   1.0000    -175.109344     -4764.9675
   4   1.0000    -164.645253     -4480.2251
   5   1.0000    -164.645253     -4480.2251
   6   1.0000    -164.642360     -4480.1464
   7   1.0000    -164.642360     -4480.1464
   8   1.0000    -164.642360     -4480.1464
   9   1.0000    -164.642360     -4480.1464
  10   1.0000     -35.299843      -960.5576
  11   1.0000     -35.299843      -960.5576
  12   1.0000     -30.860979      -839.7699
  13   1.0000     -30.860977      -839.7699
  14   1.0000     -30.853907      -839.5775
  15   1.0000     -30.853907      -839.5775
  16   1.0000     -30.853904      -839.5774
  17   1.0000     -30.853904      -839.5774
  18   1.0000     -22.636603      -615.9733
  19   1.0000     -22.636579      -615.9726
  20   1.0000     -22.635014      -615.9300
  21   1.0000     -22.635014      -615.9300
  22   1.0000     -22.635000      -615.9297
  23   1.0000     -22.635000      -615.9297
  24   1.0000     -22.630319      -615.8023
  25   1.0000     -22.630319      -615.8023
  26   1.0000     -22.630316      -615.8022
  27   1.0000     -22.630316      -615.8022
  28   1.0000      -6.145929      -167.2392
  29   1.0000      -6.145910      -167.2387
  30   1.0000      -4.599707      -125.1644
  31   1.0000      -4.599497      -125.1587
  32   1.0000      -4.583774      -124.7308
  33   1.0000      -4.583774      -124.7308
  34   1.0000      -4.583761      -124.7305
  35   1.0000      -4.583761      -124.7305
  36   1.0000      -1.953186       -53.1489
  37   1.0000      -1.949045       -53.0362
  38   1.0000      -1.947052       -52.9820
  39   1.0000      -1.947052       -52.9820
  40   1.0000      -1.945930       -52.9514
  41   1.0000      -1.945930       -52.9514
  42   1.0000      -1.933770       -52.6206
  43   1.0000      -1.933769       -52.6205
  44   1.0000      -1.933672       -52.6179
  45   1.0000      -1.933672       -52.6179
  46   1.0000      -0.654118       -17.7995
  47   1.0000      -0.559085       -15.2135
  48   1.0000      -0.354717        -9.6523
  49   1.0000      -0.294549        -8.0151
  50   1.0000      -0.294549        -8.0151
  51   1.0000      -0.232574        -6.3287
  52   1.0000      -0.232574        -6.3287
  53   0.0000      -0.158374        -4.3096
  54   0.0000       0.015931         0.4335
  55   0.0000       0.021528         0.5858
  56   0.0000       0.025794         0.7019
  57   0.0000       0.025794         0.7019

MULLIKEN ATOMIC CHARGES AND SPIN POPULATIONS
--------------------------------------------
   0 I :    0.000000    0.000000
   1 I :   -0.000000    0.000000
Sum of atomic charges         :   -0.0000000

LOEWDIN ATOMIC CHARGES AND SPIN POPULATIONS
-------------------------------------------
   0 I :   -0.000000    0.000000
   1 I :    0.000000    0.000000

  Mayer bond orders larger than 0.100000
B(  0-I ,  1-I ) :   1.0776

FINAL SINGLE POINT ENERGY    -13829.724738623130

DIPOLE MOMENT
-------------
                                X             Y             Z
Electronic contribution:      0.00000      -0.00000       0.00000
Nuclear contribution   :      0.00000       0.00000       0.00000
                        -----------------------------------------
Total Dipole Moment    :      0.00000      -0.00000       0.00000
                        -----------------------------------------
Magnitude (a.u.)       :      0.00000
Magnitude (Debye)      :      0.00000

Rotational constants in cm-1:     0.000000     0.037465     0.037465
Rotational constants in MHz :     0.000000  1123.165215  1123.165215

                             ****ORCA TERMINATED NORMALLY****
TOTAL RUN TIME: 0 days 0 hours 0 minutes 15 seconds 933 msec
