                         Program Version 5.0.3 -  RELEASE  -
|  1> !uks pbe nori defgrid3 verytightscf
|  2>
|  3> %pal nprocs 16 end
|  4>
|  5> %scf maxiter 400 end
|  6>
|  7> %basis
|  8>   newgto Sr "sarc-zora-tzvpp" end
|  9>   delecp Sr
| 10>   newgto H "zora-def2-qzvpp" end
| 11>   delecp H
| 12> end
| 13>
| 14> *xyz 0 2
| 15> Sr 0.0000000000 0.0000000000 0.0000000000
| 16> H 0.0000000000 0.0000000000 2.1360000000
| 17> *
| 18>
| 19>                          ****END OF INPUT****

CARTESIAN COORDINATES (ANGSTROEM)
---------------------------------
  Sr     0.000000    0.000000    0.000000
  H      0.000000    0.000000    2.136000

 Total Charge           Charge          ....    0
 Multiplicity           Mult            ....    2
 Number of Electrons    NEL             ....   39
 Basis Dimension        Dim             ....  107

ORBITAL ENERGIES
----------------
                 SPIN UP ORBITALS
  NO   OCC          E(Eh)            E(eV)
   0   1.0000    -573.491376    -15605.4937
   1   1.0000     -76.573921     -2083.6823
   2   1.0000     -69.787807     -1899.0228
   3   1.0000     -69.787807     -1899.0228
   4   1.0000     -69.786785     -1898.9950
   5   1.0000     -11.785533      -320.7007
   6   1.0000      -9.292525      -252.8625
   7   1.0000      -9.292525      -252.8625
   8   1.0000      -9.290626      -252.8108
   9   1.0000      -4.786350      -130.2432
  10   1.0000      -4.786350      -130.2432
  11   1.0000      -4.785121      -130.2098
  12   1.0000      -4.785121      -130.2098
  13   1.0000      -4.784428      -130.1909
  14   1.0000      -1.430661       -38.9303
  15   1.0000      -0.824419       -22.4336
  16   1.0000      -0.824419       -22.4336
  17   1.0000      -0.814059       -22.1517
  18   1.0000      -0.183972        -5.0061
  19   1.0000      -0.115940        -3.1549
  20   0.0000      -0.057379        -1.5614
  21   0.0000      -0.057379        -1.5614
  22   0.0000      -0.049768        -1.3543
  23   0.0000      -0.049768        -1.3543
  24   0.0000      -0.049386        -1.3439

                 SPIN DOWN ORBITALS
  NO   OCC          E(Eh)            E(eV)
   0   1.0000    -573.491131    -15605.4870
   1   1.0000     -76.573625     -2083.6743
   2   1.0000     -69.787547     -1899.0157
   3   1.0000     -69.787547     -1899.0157
   4   1.0000     -69.786470     -1898.9864
   5   1.0000     -11.785125      -320.6896
   6   1.0000      -9.292358      -252.8579
   7   1.0000      -9.292358      -252.8579
   8   1.0000      -9.289635      -252.7838
   9   1.0000      -4.786289      -130.2415
  10   1.0000      -4.786289      -130.2415
  11   1.0000      -4.784485      -130.1925
  12   1.0000      -4.784485      -130.1925
  13   1.0000      -4.783293      -130.1600
  14   1.0000      -1.427555       -38.8457
  15   1.0000      -0.820368       -22.3233
  16   1.0000      -0.820368       -22.3233
  17   1.0000      -0.809659       -22.0320
  18   1.0000      -0.176330        -4.7982
  19   0.0000      -0.089080        -2.4240
  20   0.0000      -0.033309        -0.9064
  21   0.0000      -0.033309        -0.9064
  22   0.0000      -0.033214        -0.9038
  23   0.0000      -0.033214        -0.9038

MULLIKEN ATOMIC CHARGES AND SPIN POPULATIONS
--------------------------------------------
   0 Sr:    0.421580    0.930641
   1 H :   -0.421580    0.069359
Sum of atomic charges         :   -0.0000000

LOEWDIN ATOMIC CHARGES AND SPIN POPULATIONS
-------------------------------------------
   0 Sr:    0.350856    0.946994
   1 H :   -0.350856    0.053006

  Mayer bond orders larger than 0.100000
B(  0-Sr,  1-H ) :   0.8097

FINAL SINGLE POINT ENERGY     -3132.661175084485

DIPOLE MOMENT
-------------
                                X             Y             Z
Electronic contribution:      0.00000       0.00000      -3.39351
Nuclear contribution   :      0.00000       0.00000       2.24604
                        -----------------------------------------
Total Dipole Moment    :      0.00000       0.00000      -1.14747
                        -----------------------------------------
Magnitude (a.u.)       :      1.14747
Magnitude (Debye)      :      2.91663

Rotational constants in cm-1:     0.000000     3.707674     3.707674
Rotational constants in MHz :     0.000000 111153.278100 111153.278100

                             ****ORCA TERMINATED NORMALLY****
TOTAL RUN TIME: 0 days 0 hours 0 minutes 6 seconds 721 msec
