                         Program Version 5.0.3 -  RELEASE  -
|  1> !uks pbe nori defgrid3 verytightscf
|  2>
|  3> %pal nprocs 16 end
|  4>
|  5> %scf maxiter 400 end
|  6>
|  7> %basis
|  8>   newgto Sr "sarc-zora-tzvpp" end
|  9>   delecp Sr
| 10>   newgto O "zora-def2-qzvpp" end
| 11>   delecp O
| 12> end
| 13>
| 14> *xyz 0 1
| 15> Sr 0.0000000000 0.0000000000 0.0000000000
| 16> O 0.0000000000 0.0000000000 1.9050000000
| 17> *
| 18>
| 19>                          ****END OF INPUT****

CARTESIAN COORDINATES (ANGSTROEM)
---------------------------------
  Sr     0.000000    0.000000    0.000000
  O      0.000000    0.000000    1.905000

 Total Charge           Charge          ....    0
 Multiplicity           Mult            ....    1
 Number of Electrons    NEL             ....   46
 Basis Dimension        Dim             ....  135

ORBITAL ENERGIES
----------------
                 SPIN UP ORBITALS
  NO   OCC          E(Eh)            E(eV)
   0   1.0000    -573.401813    -15603.0566
   1   1.0000     -76.479387     -2081.1099
   2   1.0000     -69.693740     -1896.4631
   3   1.0000     -69.693740     -1896.4631
   4   1.0000     -69.692648     -1896.4334
   5   1.0000     -18.598244      -506.0839
   6   1.0000     -11.691942      -318.1539
   7   1.0000      -9.198583      -250.3062
   8   1.0000      -9.198583      -250.3062
   9   1.0000      -9.197554      -250.2782
  10   1.0000      -4.691998      -127.6757
  11   1.0000      -4.691998      -127.6757
  12   1.0000      -4.691174      -127.6533
  13   1.0000      -4.691174      -127.6533
  14   1.0000      -4.690593      -127.6375
  15   1.0000      -1.343178       -36.5497
  16   1.0000      -0.788915       -21.4675
  17   1.0000      -0.741815       -20.1858
  18   1.0000      -0.741815       -20.1858
  19   1.0000      -0.590596       -16.0709
  20   1.0000      -0.141848        -3.8599
  21   1.0000      -0.141848        -3.8599
  22   1.0000      -0.129253        -3.5172
  23   0.0000      -0.077353        -2.1049
  24   0.0000      -0.013204        -0.3593
  25   0.0000      -0.013204        -0.3593
  26   0.0000       0.005574         0.1517
  27   0.0000       0.013457         0.3662

                 SPIN DOWN ORBITALS
  NO   OCC          E(Eh)            E(eV)
   0   1.0000    -573.401813    -15603.0566
   1   1.0000     -76.479387     -2081.1099
   2   1.0000     -69.693740     -1896.4631
   3   1.0000     -69.693740     -1896.4631
   4   1.0000     -69.692648     -1896.4334
   5   1.0000     -18.598244      -506.0839
   6   1.0000     -11.691942      -318.1539
   7   1.0000      -9.198583      -250.3062
   8   1.0000      -9.198583      -250.3062
   9   1.0000      -9.197554      -250.2782
  10   1.0000      -4.691998      -127.6757
  11   1.0000      -4.691998      -127.6757
  12   1.0000      -4.691174      -127.6533
  13   1.0000      -4.691174      -127.6533
  14   1.0000      -4.690593      -127.6375
  15   1.0000      -1.343178       -36.5497
  16   1.0000      -0.788915       -21.4675
  17   1.0000      -0.741815       -20.1858
  18   1.0000      -0.741815       -20.1858
  19   1.0000      -0.590596       -16.0709
  20   1.0000      -0.141848        -3.8599
  21   1.0000      -0.141848        -3.8599
  22   1.0000      -0.129253        -3.5172
  23   0.0000      -0.077353        -2.1049
  24   0.0000      -0.013204        -0.3593
  25   0.0000      -0.013204        -0.3593
  26   0.0000       0.005574         0.1517
  27   0.0000       0.013457         0.3662

MULLIKEN ATOMIC CHARGES AND SPIN POPULATIONS
--------------------------------------------
   0 Sr:    0.842005    0.000000
   1 O :   -0.842005    0.000000
Sum of atomic charges         :    0.0000000

LOEWDIN ATOMIC CHARGES AND SPIN POPULATIONS
-------------------------------------------
   0 Sr:    0.684294    0.000000
   1 O :   -0.684294    0.000000

  Mayer bond orders larger than 0.100000
B(  0-Sr,  1-O ) :   1.8370

FINAL SINGLE POINT ENERGY     -3207.299623643647

DIPOLE MOMENT
-------------
                                X             Y             Z
Electronic contribution:      0.00000      -0.00000      -6.25537
Nuclear contribution   :      0.00000       0.00000       3.23093
                        -----------------------------------------
Total Dipole Moment    :      0.00000      -0.00000      -3.02444
                        -----------------------------------------
Magnitude (a.u.)       :      3.02444
Magnitude (Debye)      :      7.68752

Rotational constants in cm-1:     0.000000     0.343360     0.343360
Rotational constants in MHz :     0.000000 10293.686878 10293.686878

                             ****ORCA TERMINATED NORMALLY****
TOTAL RUN TIME: 0 days 0 hours 0 minutes 12 seconds 337 msec
