                         Program Version 5.0.3 -  RELEASE  -
|  1> !uks pbe ugbs nori defgrid3 verytightscf
|  2>
|  3> %pal nprocs 16 end
|  4>
|  5> %scf maxiter 400 end
|  6>
|  7> *xyz 0 1
|  8> Ag 0.0000000000 0.0000000000 0.0000000000
|  9> F 0.0000000000 0.0000000000 1.9870000000
| 10> *
| 11>
| 12>                          ****END OF INPUT****

CARTESIAN COORDINATES (ANGSTROEM)
---------------------------------
  Ag     0.000000    0.000000    0.000000
  F      0.000000    0.000000    1.987000

 Total Charge           Charge          ....    0
 Multiplicity           Mult            ....    1
 Number of Electrons    NEL             ....   56
 Basis Dimension        Dim             ....  251

ORBITAL ENERGIES
----------------
                 SPIN UP ORBITALS
  NO   OCC          E(Eh)            E(eV)
   0   1.0000    -901.429661    -24529.1481
   1   1.0000    -130.005796     -3537.6376
   2   1.0000    -120.978511     -3291.9926
   3   1.0000    -120.978511     -3291.9926
   4   1.0000    -120.977424     -3291.9631
   5   1.0000     -24.134749      -656.7399
   6   1.0000     -23.743317      -646.0885
   7   1.0000     -20.107174      -547.1440
   8   1.0000     -20.107174      -547.1440
   9   1.0000     -20.101804      -546.9979
  10   1.0000     -13.384724      -364.2169
  11   1.0000     -13.384724      -364.2169
  12   1.0000     -13.381021      -364.1161
  13   1.0000     -13.381021      -364.1161
  14   1.0000     -13.380166      -364.0928
  15   1.0000      -3.256323       -88.6091
  16   1.0000      -2.115395       -57.5628
  17   1.0000      -2.114820       -57.5472
  18   1.0000      -2.114820       -57.5472
  19   1.0000      -0.934794       -25.4370
  20   1.0000      -0.353967        -9.6319
  21   1.0000      -0.331364        -9.0169
  22   1.0000      -0.331364        -9.0169
  23   1.0000      -0.320766        -8.7285
  24   1.0000      -0.320766        -8.7285
  25   1.0000      -0.239171        -6.5082
  26   1.0000      -0.232560        -6.3283
  27   1.0000      -0.232560        -6.3283
  28   0.0000      -0.142580        -3.8798
  29   0.0000       0.009796         0.2666
  30   0.0000       0.009796         0.2666
  31   0.0000       0.019116         0.5202
  32   0.0000       0.064700         1.7606

                 SPIN DOWN ORBITALS
  NO   OCC          E(Eh)            E(eV)
   0   1.0000    -901.429661    -24529.1481
   1   1.0000    -130.005796     -3537.6376
   2   1.0000    -120.978511     -3291.9926
   3   1.0000    -120.978511     -3291.9926
   4   1.0000    -120.977424     -3291.9631
   5   1.0000     -24.134749      -656.7399
   6   1.0000     -23.743317      -646.0885
   7   1.0000     -20.107174      -547.1440
   8   1.0000     -20.107174      -547.1440
   9   1.0000     -20.101804      -546.9979
  10   1.0000     -13.384724      -364.2169
  11   1.0000     -13.384724      -364.2169
  12   1.0000     -13.381021      -364.1161
  13   1.0000     -13.381021      -364.1161
  14   1.0000     -13.380166      -364.0928
  15   1.0000      -3.256323       -88.6091
  16   1.0000      -2.115395       -57.5628
  17   1.0000      -2.114820       -57.5472
  18   1.0000      -2.114820       -57.5472
  19   1.0000      -0.934794       -25.4370
  20   1.0000      -0.353967        -9.6319
  21   1.0000      -0.331364        -9.0169
  22   1.0000      -0.331364        -9.0169
  23   1.0000      -0.320766        -8.7285
  24   1.0000      -0.320766        -8.7285
  25   1.0000      -0.239171        -6.5082
  26   1.0000      -0.232560        -6.3283
  27   1.0000      -0.232560        -6.3283
  28   0.0000      -0.142580        -3.8798
  29   0.0000       0.009796         0.2666
  30   0.0000       0.009796         0.2666
  31   0.0000       0.019116         0.5202
  32   0.0000       0.064700         1.7606

MULLIKEN ATOMIC CHARGES AND SPIN POPULATIONS
--------------------------------------------
   0 Ag:    0.641920    0.000000
   1 F :   -0.641920    0.000000
Sum of atomic charges         :   -0.0000000

LOEWDIN ATOMIC CHARGES AND SPIN POPULATIONS
-------------------------------------------
   0 Ag:    0.560473    0.000000
   1 F :   -0.560473    0.000000

  Mayer bond orders larger than 0.100000
B(  0-Ag,  1-F ) :   0.5858

FINAL SINGLE POINT ENERGY     -5299.388939602904

DIPOLE MOMENT
-------------
                                X             Y             Z
Electronic contribution:     -0.00000       0.00000      -4.65698
Nuclear contribution   :      0.00000       0.00000       2.30630
                        -----------------------------------------
Total Dipole Moment    :     -0.00000       0.00000      -2.35068
                        -----------------------------------------
Magnitude (a.u.)       :      2.35068
Magnitude (Debye)      :      5.97494

Rotational constants in cm-1:     0.000000     0.264329     0.264329
Rotational constants in MHz :     0.000000  7924.381970  7924.381970

                             ****ORCA TERMINATED NORMALLY****
TOTAL RUN TIME: 0 days 0 hours 0 minutes 13 seconds 443 msec
