                         Program Version 5.0.3 -  RELEASE  -
|  1> !uks pbe ugbs nori defgrid3 verytightscf
|  2>
|  3> %pal nprocs 16 end
|  4>
|  5> %scf maxiter 400 end
|  6>
|  7> *xyz 0 1
|  8> Ag 0.0000000000 0.0000000000 0.0000000000
|  9> H 0.0000000000 0.0000000000 1.9310000000
| 10> *
| 11>
| 12>                          ****END OF INPUT****

CARTESIAN COORDINATES (ANGSTROEM)
---------------------------------
  Ag     0.000000    0.000000    0.000000
  H      0.000000    0.000000    1.931000

 Total Charge           Charge          ....    0
 Multiplicity           Mult            ....    1
 Number of Electrons    NEL             ....   48
 Basis Dimension        Dim             ....  199

ORBITAL ENERGIES
----------------
                 SPIN UP ORBITALS
  NO   OCC          E(Eh)            E(eV)
   0   1.0000    -901.413427    -24528.7064
   1   1.0000    -129.990232     -3537.2141
   2   1.0000    -120.962695     -3291.5623
   3   1.0000    -120.962695     -3291.5623
   4   1.0000    -120.962437     -3291.5552
   5   1.0000     -23.726553      -645.6323
   6   1.0000     -20.089589      -546.6655
   7   1.0000     -20.089589      -546.6655
   8   1.0000     -20.086979      -546.5945
   9   1.0000     -13.367011      -363.7349
  10   1.0000     -13.367011      -363.7349
  11   1.0000     -13.365194      -363.6854
  12   1.0000     -13.365194      -363.6854
  13   1.0000     -13.364851      -363.6761
  14   1.0000      -3.236203       -88.0616
  15   1.0000      -2.095514       -57.0218
  16   1.0000      -2.093889       -56.9776
  17   1.0000      -2.093889       -56.9776
  18   1.0000      -0.318819        -8.6755
  19   1.0000      -0.301046        -8.1919
  20   1.0000      -0.301046        -8.1919
  21   1.0000      -0.298896        -8.1334
  22   1.0000      -0.298896        -8.1334
  23   1.0000      -0.206916        -5.6305
  24   0.0000      -0.113216        -3.0808
  25   0.0000       0.014559         0.3962
  26   0.0000       0.040226         1.0946
  27   0.0000       0.040226         1.0946
  28   0.0000       0.053341         1.4515

                 SPIN DOWN ORBITALS
  NO   OCC          E(Eh)            E(eV)
   0   1.0000    -901.413427    -24528.7064
   1   1.0000    -129.990232     -3537.2141
   2   1.0000    -120.962695     -3291.5623
   3   1.0000    -120.962695     -3291.5623
   4   1.0000    -120.962437     -3291.5552
   5   1.0000     -23.726553      -645.6323
   6   1.0000     -20.089589      -546.6655
   7   1.0000     -20.089589      -546.6655
   8   1.0000     -20.086979      -546.5945
   9   1.0000     -13.367011      -363.7349
  10   1.0000     -13.367011      -363.7349
  11   1.0000     -13.365194      -363.6854
  12   1.0000     -13.365194      -363.6854
  13   1.0000     -13.364851      -363.6761
  14   1.0000      -3.236203       -88.0616
  15   1.0000      -2.095514       -57.0218
  16   1.0000      -2.093889       -56.9776
  17   1.0000      -2.093889       -56.9776
  18   1.0000      -0.318819        -8.6755
  19   1.0000      -0.301046        -8.1919
  20   1.0000      -0.301046        -8.1919
  21   1.0000      -0.298896        -8.1334
  22   1.0000      -0.298896        -8.1334
  23   1.0000      -0.206916        -5.6305
  24   0.0000      -0.113216        -3.0808
  25   0.0000       0.014559         0.3962
  26   0.0000       0.040226         1.0946
  27   0.0000       0.040226         1.0946
  28   0.0000       0.053341         1.4515

MULLIKEN ATOMIC CHARGES AND SPIN POPULATIONS
--------------------------------------------
   0 Ag:    0.230622    0.000000
   1 H :   -0.230622    0.000000
Sum of atomic charges         :   -0.0000000

LOEWDIN ATOMIC CHARGES AND SPIN POPULATIONS
-------------------------------------------
   0 Ag:    0.241482    0.000000
   1 H :   -0.241482    0.000000

  Mayer bond orders larger than 0.100000
B(  0-Ag,  1-H ) :   0.9708

FINAL SINGLE POINT ENERGY     -5200.152721806373

DIPOLE MOMENT
-------------
                                X             Y             Z
Electronic contribution:      0.00000       0.00000      -3.36111
Nuclear contribution   :      0.00000       0.00000       2.02746
                        -----------------------------------------
Total Dipole Moment    :      0.00000       0.00000      -1.33365
                        -----------------------------------------
Magnitude (a.u.)       :      1.33365
Magnitude (Debye)      :      3.38986

Rotational constants in cm-1:     0.000000     4.527008     4.527008
Rotational constants in MHz :     0.000000 135716.290347 135716.290347

                             ****ORCA TERMINATED NORMALLY****
TOTAL RUN TIME: 0 days 0 hours 0 minutes 9 seconds 314 msec
