                         Program Version 5.0.3 -  RELEASE  -
|  1> !uks pbe ugbs nori defgrid3 verytightscf
|  2>
|  3> %pal nprocs 16 end
|  4>
|  5> %scf maxiter 400 end
|  6>
|  7> *xyz 0 2
|  8> Ag 0.0000000000 0.0000000000 0.0000000000
|  9> O 0.0000000000 0.0000000000 1.9310000000
| 10> *
| 11>
| 12>                          ****END OF INPUT****

CARTESIAN COORDINATES (ANGSTROEM)
---------------------------------
  Ag     0.000000    0.000000    0.000000
  O      0.000000    0.000000    1.931000

 Total Charge           Charge          ....    0
 Multiplicity           Mult            ....    2
 Number of Electrons    NEL             ....   55
 Basis Dimension        Dim             ....  250

ORBITAL ENERGIES
----------------
                 SPIN UP ORBITALS
  NO   OCC          E(Eh)            E(eV)
   0   1.0000    -901.437811    -24529.3699
   1   1.0000    -130.016130     -3537.9188
   2   1.0000    -120.988998     -3292.2780
   3   1.0000    -120.988225     -3292.2570
   4   1.0000    -120.987559     -3292.2389
   5   1.0000     -23.752989      -646.3517
   6   1.0000     -20.117773      -547.4324
   7   1.0000     -20.114707      -547.3490
   8   1.0000     -20.112896      -547.2997
   9   1.0000     -18.753919      -510.3201
  10   1.0000     -13.394076      -364.4713
  11   1.0000     -13.393776      -364.4632
  12   1.0000     -13.392986      -364.4417
  13   1.0000     -13.390646      -364.3780
  14   1.0000     -13.390237      -364.3669
  15   1.0000      -3.265552       -88.8602
  16   1.0000      -2.129278       -57.9406
  17   1.0000      -2.124233       -57.8033
  18   1.0000      -2.117983       -57.6332
  19   1.0000      -0.811844       -22.0914
  20   1.0000      -0.361167        -9.8279
  21   1.0000      -0.354513        -9.6468
  22   1.0000      -0.338578        -9.2132
  23   1.0000      -0.322755        -8.7826
  24   1.0000      -0.322743        -8.7823
  25   1.0000      -0.266902        -7.2628
  26   1.0000      -0.227321        -6.1857
  27   1.0000      -0.212693        -5.7877
  28   0.0000      -0.132678        -3.6104
  29   0.0000       0.009967         0.2712
  30   0.0000       0.016154         0.4396
  31   0.0000       0.018358         0.4996
  32   0.0000       0.073572         2.0020

                 SPIN DOWN ORBITALS
  NO   OCC          E(Eh)            E(eV)
   0   1.0000    -901.437862    -24529.3713
   1   1.0000    -130.015359     -3537.8978
   2   1.0000    -120.988299     -3292.2590
   3   1.0000    -120.987437     -3292.2355
   4   1.0000    -120.987342     -3292.2329
   5   1.0000     -23.752675      -646.3432
   6   1.0000     -20.117283      -547.4191
   7   1.0000     -20.114576      -547.3454
   8   1.0000     -20.112367      -547.2853
   9   1.0000     -18.730247      -509.6759
  10   1.0000     -13.393674      -364.4604
  11   1.0000     -13.393340      -364.4513
  12   1.0000     -13.391541      -364.4024
  13   1.0000     -13.390094      -364.3630
  14   1.0000     -13.389846      -364.3562
  15   1.0000      -3.262873       -88.7873
  16   1.0000      -2.125761       -57.8449
  17   1.0000      -2.121049       -57.7167
  18   1.0000      -2.116914       -57.6042
  19   1.0000      -0.751926       -20.4609
  20   1.0000      -0.350443        -9.5360
  21   1.0000      -0.337583        -9.1861
  22   1.0000      -0.336146        -9.1470
  23   1.0000      -0.322166        -8.7666
  24   1.0000      -0.322098        -8.7647
  25   1.0000      -0.210830        -5.7370
  26   1.0000      -0.190037        -5.1712
  27   0.0000      -0.169631        -4.6159
  28   0.0000      -0.128630        -3.5002
  29   0.0000       0.014174         0.3857
  30   0.0000       0.014854         0.4042
  31   0.0000       0.017007         0.4628

MULLIKEN ATOMIC CHARGES AND SPIN POPULATIONS
--------------------------------------------
   0 Ag:    0.531358   -0.020850
   1 O :   -0.531358    1.020850
Sum of atomic charges         :   -0.0000000

LOEWDIN ATOMIC CHARGES AND SPIN POPULATIONS
-------------------------------------------
   0 Ag:    0.414888    0.004822
   1 O :   -0.414888    0.995178

  Mayer bond orders larger than 0.100000
B(  0-Ag,  1-O ) :   0.9177

FINAL SINGLE POINT ENERGY     -5274.669595439856

DIPOLE MOMENT
-------------
                                X             Y             Z
Electronic contribution:     -0.00000      -0.00000      -5.21688
Nuclear contribution   :      0.00000       0.00000       3.27016
                        -----------------------------------------
Total Dipole Moment    :     -0.00000      -0.00000      -1.94672
                        -----------------------------------------
Magnitude (a.u.)       :      1.94672
Magnitude (Debye)      :      4.94818

Rotational constants in cm-1:     0.000000     0.324490     0.324490
Rotational constants in MHz :     0.000000  9727.968839  9727.968839

                             ****ORCA TERMINATED NORMALLY****
TOTAL RUN TIME: 0 days 0 hours 0 minutes 19 seconds 302 msec
