                         Program Version 5.0.3 -  RELEASE  -
|  1> !uks pbe ugbs nori defgrid3 verytightscf
|  2>
|  3> %pal nprocs 16 end
|  4>
|  5> %scf maxiter 400 end
|  6>
|  7> *xyz 0 1
|  8> I 0.0000000000 0.0000000000 0.0000000000
|  9> I 0.0000000000 0.0000000000 2.6630000000
| 10> *
| 11>
| 12>                          ****END OF INPUT****

CARTESIAN COORDINATES (ANGSTROEM)
---------------------------------
  I      0.000000    0.000000    0.000000
  I      0.000000    0.000000    2.663000

 Total Charge           Charge          ....    0
 Multiplicity           Mult            ....    1
 Number of Electrons    NEL             ....  106
 Basis Dimension        Dim             ....  352

ORBITAL ENERGIES
----------------
                 SPIN UP ORBITALS
  NO   OCC          E(Eh)            E(eV)
   0   1.0000   -1163.022103    -31647.4404
   1   1.0000   -1163.022103    -31647.4404
   2   1.0000    -175.222482     -4768.0461
   3   1.0000    -175.222482     -4768.0461
   4   1.0000    -164.662559     -4480.6960
   5   1.0000    -164.662559     -4480.6960
   6   1.0000    -164.659498     -4480.6127
   7   1.0000    -164.659498     -4480.6127
   8   1.0000    -164.659498     -4480.6127
   9   1.0000    -164.659498     -4480.6127
  10   1.0000     -35.289621      -960.2794
  11   1.0000     -35.289621      -960.2794
  12   1.0000     -30.854521      -839.5942
  13   1.0000     -30.854521      -839.5942
  14   1.0000     -30.846479      -839.3754
  15   1.0000     -30.846479      -839.3754
  16   1.0000     -30.846479      -839.3754
  17   1.0000     -30.846479      -839.3754
  18   1.0000     -22.601072      -615.0064
  19   1.0000     -22.601072      -615.0064
  20   1.0000     -22.599320      -614.9588
  21   1.0000     -22.599320      -614.9588
  22   1.0000     -22.599320      -614.9588
  23   1.0000     -22.599320      -614.9588
  24   1.0000     -22.594037      -614.8150
  25   1.0000     -22.594037      -614.8150
  26   1.0000     -22.594037      -614.8150
  27   1.0000     -22.594037      -614.8150
  28   1.0000      -6.139257      -167.0577
  29   1.0000      -6.139236      -167.0571
  30   1.0000      -4.599778      -125.1663
  31   1.0000      -4.599568      -125.1606
  32   1.0000      -4.579873      -124.6247
  33   1.0000      -4.579873      -124.6247
  34   1.0000      -4.579860      -124.6243
  35   1.0000      -4.579860      -124.6243
  36   1.0000      -1.954298       -53.1791
  37   1.0000      -1.950132       -53.0658
  38   1.0000      -1.947091       -52.9830
  39   1.0000      -1.947091       -52.9830
  40   1.0000      -1.945967       -52.9525
  41   1.0000      -1.945967       -52.9525
  42   1.0000      -1.930620       -52.5348
  43   1.0000      -1.930618       -52.5348
  44   1.0000      -1.930522       -52.5322
  45   1.0000      -1.930520       -52.5321
  46   1.0000      -0.656985       -17.8775
  47   1.0000      -0.558831       -15.2066
  48   1.0000      -0.357560        -9.7297
  49   1.0000      -0.292943        -7.9714
  50   1.0000      -0.292943        -7.9714
  51   1.0000      -0.231212        -6.2916
  52   1.0000      -0.231212        -6.2916
  53   0.0000      -0.161563        -4.3963
  54   0.0000       0.032219         0.8767
  55   0.0000       0.077674         2.1136
  56   0.0000       0.079206         2.1553
  57   0.0000       0.079206         2.1553

                 SPIN DOWN ORBITALS
  NO   OCC          E(Eh)            E(eV)
   0   1.0000   -1163.022103    -31647.4404
   1   1.0000   -1163.022103    -31647.4404
   2   1.0000    -175.222482     -4768.0461
   3   1.0000    -175.222482     -4768.0461
   4   1.0000    -164.662559     -4480.6960
   5   1.0000    -164.662559     -4480.6960
   6   1.0000    -164.659498     -4480.6127
   7   1.0000    -164.659498     -4480.6127
   8   1.0000    -164.659498     -4480.6127
   9   1.0000    -164.659498     -4480.6127
  10   1.0000     -35.289621      -960.2794
  11   1.0000     -35.289621      -960.2794
  12   1.0000     -30.854521      -839.5942
  13   1.0000     -30.854521      -839.5942
  14   1.0000     -30.846479      -839.3754
  15   1.0000     -30.846479      -839.3754
  16   1.0000     -30.846479      -839.3754
  17   1.0000     -30.846479      -839.3754
  18   1.0000     -22.601072      -615.0064
  19   1.0000     -22.601072      -615.0064
  20   1.0000     -22.599320      -614.9588
  21   1.0000     -22.599320      -614.9588
  22   1.0000     -22.599320      -614.9588
  23   1.0000     -22.599320      -614.9588
  24   1.0000     -22.594037      -614.8150
  25   1.0000     -22.594037      -614.8150
  26   1.0000     -22.594037      -614.8150
  27   1.0000     -22.594037      -614.8150
  28   1.0000      -6.139257      -167.0577
  29   1.0000      -6.139236      -167.0571
  30   1.0000      -4.599778      -125.1663
  31   1.0000      -4.599568      -125.1606
  32   1.0000      -4.579873      -124.6247
  33   1.0000      -4.579873      -124.6247
  34   1.0000      -4.579860      -124.6243
  35   1.0000      -4.579860      -124.6243
  36   1.0000      -1.954298       -53.1791
  37   1.0000      -1.950132       -53.0658
  38   1.0000      -1.947091       -52.9830
  39   1.0000      -1.947091       -52.9830
  40   1.0000      -1.945967       -52.9525
  41   1.0000      -1.945967       -52.9525
  42   1.0000      -1.930620       -52.5348
  43   1.0000      -1.930618       -52.5348
  44   1.0000      -1.930522       -52.5322
  45   1.0000      -1.930520       -52.5321
  46   1.0000      -0.656985       -17.8775
  47   1.0000      -0.558831       -15.2066
  48   1.0000      -0.357560        -9.7297
  49   1.0000      -0.292943        -7.9714
  50   1.0000      -0.292943        -7.9714
  51   1.0000      -0.231212        -6.2916
  52   1.0000      -0.231212        -6.2916
  53   0.0000      -0.161563        -4.3963
  54   0.0000       0.032219         0.8767
  55   0.0000       0.077674         2.1136
  56   0.0000       0.079206         2.1553
  57   0.0000       0.079206         2.1553

MULLIKEN ATOMIC CHARGES AND SPIN POPULATIONS
--------------------------------------------
   0 I :    0.000000    0.000000
   1 I :   -0.000000    0.000000
Sum of atomic charges         :   -0.0000000

LOEWDIN ATOMIC CHARGES AND SPIN POPULATIONS
-------------------------------------------
   0 I :    0.000000    0.000000
   1 I :   -0.000000    0.000000

  Mayer bond orders larger than 0.100000
B(  0-I ,  1-I ) :   1.1007

FINAL SINGLE POINT ENERGY    -13840.147255340948

DIPOLE MOMENT
-------------
                                X             Y             Z
Electronic contribution:     -0.00000       0.00000       0.00000
Nuclear contribution   :      0.00000       0.00000       0.00000
                        -----------------------------------------
Total Dipole Moment    :     -0.00000       0.00000       0.00000
                        -----------------------------------------
Magnitude (a.u.)       :      0.00000
Magnitude (Debye)      :      0.00000

Rotational constants in cm-1:     0.000000     0.037465     0.037465
Rotational constants in MHz :     0.000000  1123.165215  1123.165215

                             ****ORCA TERMINATED NORMALLY****
TOTAL RUN TIME: 0 days 0 hours 0 minutes 16 seconds 489 msec
