                         Program Version 5.0.3 -  RELEASE  -
|  1> !uks pbe ugbs nori defgrid3 verytightscf
|  2>
|  3> %pal nprocs 16 end
|  4>
|  5> %scf maxiter 400 end
|  6>
|  7> *xyz 0 2
|  8> Sr 0.0000000000 0.0000000000 0.0000000000
|  9> F 0.0000000000 0.0000000000 2.0800000000
| 10> *
| 11>
| 12>                          ****END OF INPUT****

CARTESIAN COORDINATES (ANGSTROEM)
---------------------------------
  Sr     0.000000    0.000000    0.000000
  F      0.000000    0.000000    2.080000

 Total Charge           Charge          ....    0
 Multiplicity           Mult            ....    2
 Number of Electrons    NEL             ....   47
 Basis Dimension        Dim             ....  235

ORBITAL ENERGIES
----------------
                 SPIN UP ORBITALS
  NO   OCC          E(Eh)            E(eV)
   0   1.0000    -573.696794    -15611.0834
   1   1.0000     -76.551659     -2083.0765
   2   1.0000     -69.740602     -1897.7383
   3   1.0000     -69.740602     -1897.7383
   4   1.0000     -69.739333     -1897.7037
   5   1.0000     -24.144345      -657.0010
   6   1.0000     -11.772981      -320.3591
   7   1.0000      -9.281192      -252.5541
   8   1.0000      -9.281192      -252.5541
   9   1.0000      -9.278243      -252.4738
  10   1.0000      -4.770927      -129.8235
  11   1.0000      -4.770927      -129.8235
  12   1.0000      -4.768897      -129.7683
  13   1.0000      -4.768897      -129.7683
  14   1.0000      -4.768060      -129.7455
  15   1.0000      -1.425499       -38.7898
  16   1.0000      -0.970188       -26.4002
  17   1.0000      -0.819267       -22.2934
  18   1.0000      -0.819267       -22.2934
  19   1.0000      -0.789457       -21.4822
  20   1.0000      -0.275784        -7.5045
  21   1.0000      -0.273177        -7.4335
  22   1.0000      -0.273177        -7.4335
  23   1.0000      -0.121925        -3.3177
  24   0.0000      -0.025658        -0.6982
  25   0.0000      -0.025658        -0.6982
  26   0.0000      -0.022454        -0.6110
  27   0.0000       0.010752         0.2926
  28   0.0000       0.020040         0.5453

                 SPIN DOWN ORBITALS
  NO   OCC          E(Eh)            E(eV)
   0   1.0000    -573.696487    -15611.0751
   1   1.0000     -76.551387     -2083.0691
   2   1.0000     -69.740341     -1897.7312
   3   1.0000     -69.740341     -1897.7312
   4   1.0000     -69.739066     -1897.6965
   5   1.0000     -24.144418      -657.0030
   6   1.0000     -11.772541      -320.3471
   7   1.0000      -9.280881      -252.5456
   8   1.0000      -9.280881      -252.5456
   9   1.0000      -9.277458      -252.4525
  10   1.0000      -4.770668      -129.8165
  11   1.0000      -4.770668      -129.8165
  12   1.0000      -4.768267      -129.7511
  13   1.0000      -4.768267      -129.7511
  14   1.0000      -4.767216      -129.7225
  15   1.0000      -1.422773       -38.7156
  16   1.0000      -0.969805       -26.3897
  17   1.0000      -0.815244       -22.1839
  18   1.0000      -0.815244       -22.1839
  19   1.0000      -0.786126       -21.3916
  20   1.0000      -0.275189        -7.4883
  21   1.0000      -0.272995        -7.4286
  22   1.0000      -0.272995        -7.4286
  23   0.0000      -0.087848        -2.3905
  24   0.0000       0.002324         0.0632
  25   0.0000       0.008739         0.2378
  26   0.0000       0.008739         0.2378
  27   0.0000       0.030846         0.8394

MULLIKEN ATOMIC CHARGES AND SPIN POPULATIONS
--------------------------------------------
   0 Sr:    0.678610    1.006884
   1 F :   -0.678610   -0.006884
Sum of atomic charges         :   -0.0000000

LOEWDIN ATOMIC CHARGES AND SPIN POPULATIONS
-------------------------------------------
   0 Sr:    0.770886    0.972895
   1 F :   -0.770886    0.027105

  Mayer bond orders larger than 0.100000
B(  0-Sr,  1-F ) :   0.4912

FINAL SINGLE POINT ENERGY     -3232.834303842656

DIPOLE MOMENT
-------------
                                X             Y             Z
Electronic contribution:      0.00000       0.00000      -3.98777
Nuclear contribution   :      0.00000       0.00000       2.45737
                        -----------------------------------------
Total Dipole Moment    :      0.00000       0.00000      -1.53039
                        -----------------------------------------
Magnitude (a.u.)       :      1.53039
Magnitude (Debye)      :      3.88995

Rotational constants in cm-1:     0.000000     0.249568     0.249568
Rotational constants in MHz :     0.000000  7481.873023  7481.873023

                             ****ORCA TERMINATED NORMALLY****
TOTAL RUN TIME: 0 days 0 hours 0 minutes 12 seconds 662 msec
