                         Program Version 5.0.3 -  RELEASE  -
|  1> !uks pbe ugbs nori defgrid3 verytightscf
|  2>
|  3> %pal nprocs 16 end
|  4>
|  5> %scf maxiter 400 end
|  6>
|  7> *xyz 0 2
|  8> Sr 0.0000000000 0.0000000000 0.0000000000
|  9> H 0.0000000000 0.0000000000 2.1360000000
| 10> *
| 11>
| 12>                          ****END OF INPUT****

CARTESIAN COORDINATES (ANGSTROEM)
---------------------------------
  Sr     0.000000    0.000000    0.000000
  H      0.000000    0.000000    2.136000

 Total Charge           Charge          ....    0
 Multiplicity           Mult            ....    2
 Number of Electrons    NEL             ....   39
 Basis Dimension        Dim             ....  183

ORBITAL ENERGIES
----------------
                 SPIN UP ORBITALS
  NO   OCC          E(Eh)            E(eV)
   0   1.0000    -573.711826    -15611.4924
   1   1.0000     -76.567204     -2083.4995
   2   1.0000     -69.756041     -1898.1584
   3   1.0000     -69.756041     -1898.1584
   4   1.0000     -69.755010     -1898.1303
   5   1.0000     -11.788228      -320.7740
   6   1.0000      -9.296241      -252.9636
   7   1.0000      -9.296241      -252.9636
   8   1.0000      -9.293936      -252.9009
   9   1.0000      -4.785929      -130.2318
  10   1.0000      -4.785929      -130.2318
  11   1.0000      -4.784406      -130.1903
  12   1.0000      -4.784406      -130.1903
  13   1.0000      -4.783641      -130.1695
  14   1.0000      -1.437960       -39.1289
  15   1.0000      -0.832037       -22.6409
  16   1.0000      -0.832037       -22.6409
  17   1.0000      -0.820429       -22.3250
  18   1.0000      -0.186240        -5.0679
  19   1.0000      -0.116453        -3.1688
  20   0.0000      -0.030658        -0.8343
  21   0.0000      -0.027743        -0.7549
  22   0.0000      -0.027743        -0.7549
  23   0.0000       0.006484         0.1764
  24   0.0000       0.010083         0.2744

                 SPIN DOWN ORBITALS
  NO   OCC          E(Eh)            E(eV)
   0   1.0000    -573.711570    -15611.4855
   1   1.0000     -76.566919     -2083.4918
   2   1.0000     -69.755788     -1898.1515
   3   1.0000     -69.755788     -1898.1515
   4   1.0000     -69.754677     -1898.1213
   5   1.0000     -11.787831      -320.7632
   6   1.0000      -9.296062      -252.9587
   7   1.0000      -9.296062      -252.9587
   8   1.0000      -9.293000      -252.8754
   9   1.0000      -4.785845      -130.2295
  10   1.0000      -4.785845      -130.2295
  11   1.0000      -4.783770      -130.1730
  12   1.0000      -4.783770      -130.1730
  13   1.0000      -4.782583      -130.1407
  14   1.0000      -1.435072       -39.0503
  15   1.0000      -0.828407       -22.5421
  16   1.0000      -0.828407       -22.5421
  17   1.0000      -0.816219       -22.2105
  18   1.0000      -0.176769        -4.8101
  19   0.0000      -0.091105        -2.4791
  20   0.0000      -0.016270        -0.4427
  21   0.0000      -0.006790        -0.1848
  22   0.0000      -0.006790        -0.1848
  23   0.0000       0.019616         0.5338

MULLIKEN ATOMIC CHARGES AND SPIN POPULATIONS
--------------------------------------------
   0 Sr:    0.519572    0.967477
   1 H :   -0.519572    0.032523
Sum of atomic charges         :   -0.0000000

LOEWDIN ATOMIC CHARGES AND SPIN POPULATIONS
-------------------------------------------
   0 Sr:    0.571013    0.901663
   1 H :   -0.571013    0.098337

  Mayer bond orders larger than 0.100000
B(  0-Sr,  1-H ) :   0.4298

FINAL SINGLE POINT ENERGY     -3133.514794909958

DIPOLE MOMENT
-------------
                                X             Y             Z
Electronic contribution:     -0.00000      -0.00000      -3.43673
Nuclear contribution   :      0.00000       0.00000       2.24604
                        -----------------------------------------
Total Dipole Moment    :     -0.00000      -0.00000      -1.19070
                        -----------------------------------------
Magnitude (a.u.)       :      1.19070
Magnitude (Debye)      :      3.02651

Rotational constants in cm-1:     0.000000     3.707674     3.707674
Rotational constants in MHz :     0.000000 111153.278100 111153.278100

                             ****ORCA TERMINATED NORMALLY****
TOTAL RUN TIME: 0 days 0 hours 0 minutes 7 seconds 872 msec
