                         Program Version 5.0.3 -  RELEASE  -
|  1> !uks pbe ugbs nori defgrid3 verytightscf
|  2>
|  3> %pal nprocs 16 end
|  4>
|  5> %scf maxiter 400 end
|  6>
|  7> *xyz 0 1
|  8> Sr 0.0000000000 0.0000000000 0.0000000000
|  9> O 0.0000000000 0.0000000000 1.9050000000
| 10> *
| 11>
| 12>                          ****END OF INPUT****

CARTESIAN COORDINATES (ANGSTROEM)
---------------------------------
  Sr     0.000000    0.000000    0.000000
  O      0.000000    0.000000    1.905000

 Total Charge           Charge          ....    0
 Multiplicity           Mult            ....    1
 Number of Electrons    NEL             ....   46
 Basis Dimension        Dim             ....  234

ORBITAL ENERGIES
----------------
                 SPIN UP ORBITALS
  NO   OCC          E(Eh)            E(eV)
   0   1.0000    -573.620107    -15608.9967
   1   1.0000     -76.470386     -2080.8650
   2   1.0000     -69.659737     -1895.5378
   3   1.0000     -69.659737     -1895.5378
   4   1.0000     -69.658486     -1895.5038
   5   1.0000     -18.590795      -505.8813
   6   1.0000     -11.692711      -318.1748
   7   1.0000      -9.200476      -250.3577
   8   1.0000      -9.200476      -250.3577
   9   1.0000      -9.198727      -250.3101
  10   1.0000      -4.689757      -127.6148
  11   1.0000      -4.689757      -127.6148
  12   1.0000      -4.688418      -127.5784
  13   1.0000      -4.688418      -127.5784
  14   1.0000      -4.687715      -127.5592
  15   1.0000      -1.349997       -36.7353
  16   1.0000      -0.795991       -21.6600
  17   1.0000      -0.748814       -20.3763
  18   1.0000      -0.748814       -20.3763
  19   1.0000      -0.588102       -16.0031
  20   1.0000      -0.136667        -3.7189
  21   1.0000      -0.136667        -3.7189
  22   1.0000      -0.124157        -3.3785
  23   0.0000      -0.078660        -2.1404
  24   0.0000       0.019418         0.5284
  25   0.0000       0.019418         0.5284
  26   0.0000       0.032773         0.8918
  27   0.0000       0.035420         0.9638

                 SPIN DOWN ORBITALS
  NO   OCC          E(Eh)            E(eV)
   0   1.0000    -573.620107    -15608.9967
   1   1.0000     -76.470386     -2080.8650
   2   1.0000     -69.659737     -1895.5378
   3   1.0000     -69.659737     -1895.5378
   4   1.0000     -69.658486     -1895.5038
   5   1.0000     -18.590795      -505.8813
   6   1.0000     -11.692711      -318.1748
   7   1.0000      -9.200476      -250.3577
   8   1.0000      -9.200476      -250.3577
   9   1.0000      -9.198727      -250.3101
  10   1.0000      -4.689757      -127.6148
  11   1.0000      -4.689757      -127.6148
  12   1.0000      -4.688418      -127.5784
  13   1.0000      -4.688418      -127.5784
  14   1.0000      -4.687715      -127.5592
  15   1.0000      -1.349997       -36.7353
  16   1.0000      -0.795991       -21.6600
  17   1.0000      -0.748814       -20.3763
  18   1.0000      -0.748814       -20.3763
  19   1.0000      -0.588102       -16.0031
  20   1.0000      -0.136667        -3.7189
  21   1.0000      -0.136667        -3.7189
  22   1.0000      -0.124157        -3.3785
  23   0.0000      -0.078660        -2.1404
  24   0.0000       0.019418         0.5284
  25   0.0000       0.019418         0.5284
  26   0.0000       0.032773         0.8918
  27   0.0000       0.035420         0.9638

MULLIKEN ATOMIC CHARGES AND SPIN POPULATIONS
--------------------------------------------
   0 Sr:    1.035666    0.000000
   1 O :   -1.035666    0.000000
Sum of atomic charges         :   -0.0000000

LOEWDIN ATOMIC CHARGES AND SPIN POPULATIONS
-------------------------------------------
   0 Sr:    1.080512    0.000000
   1 O :   -1.080512    0.000000

  Mayer bond orders larger than 0.100000
B(  0-Sr,  1-O ) :   1.3952

FINAL SINGLE POINT ENERGY     -3208.140033928670

DIPOLE MOMENT
-------------
                                X             Y             Z
Electronic contribution:      0.00000      -0.00000      -6.70981
Nuclear contribution   :      0.00000       0.00000       3.23093
                        -----------------------------------------
Total Dipole Moment    :      0.00000      -0.00000      -3.47887
                        -----------------------------------------
Magnitude (a.u.)       :      3.47887
Magnitude (Debye)      :      8.84259

Rotational constants in cm-1:     0.000000     0.343360     0.343360
Rotational constants in MHz :     0.000000 10293.686878 10293.686878

                             ****ORCA TERMINATED NORMALLY****
TOTAL RUN TIME: 0 days 0 hours 0 minutes 16 seconds 770 msec
