                         Program Version 4.2.1 -  RELEASE  -
|  1> ! LDA pc-1 nori grid5 finalgrid6 verytightscf
|  2> %Pal NProcs 18 End
|  3>
|  4> *xyz 34 1
|  5> Kr 0.0 0.0 0.0
|  6> **                         ****END OF INPUT****

CARTESIAN COORDINATES (ANGSTROEM)
---------------------------------
  Kr     0.000000    0.000000    0.000000

 Total Charge           Charge          ....   34
 Multiplicity           Mult            ....    1
 Number of Electrons    NEL             ....    2
 Basis Dimension        Dim             ....   27

ORBITAL ENERGIES
----------------

  NO   OCC          E(Eh)            E(eV)
   0   2.0000    -616.310190    -16770.6529
   1   0.0000    -148.278893     -4034.8738
   2   0.0000    -146.333946     -3981.9491
   3   0.0000    -146.333946     -3981.9491
   4   0.0000    -146.333946     -3981.9491
   5   0.0000     -60.645824     -1650.2568

MULLIKEN ATOMIC CHARGES
-----------------------
   0 Kr:   34.000000
Sum of atomic charges:   34.0000000

LOEWDIN ATOMIC CHARGES
----------------------
   0 Kr:   34.000000

FINAL SINGLE POINT ENERGY     -1270.627057403627

DIPOLE MOMENT
-------------
                                X             Y             Z
Electronic contribution:      0.00000      -0.00000       0.00000
Nuclear contribution   :      0.00000       0.00000       0.00000
                        -----------------------------------------
Total Dipole Moment    :      0.00000      -0.00000       0.00000
                        -----------------------------------------
Magnitude (a.u.)       :      0.00000
Magnitude (Debye)      :      0.00000

Rotational constants in cm-1:     0.000000     0.000000     0.000000
Rotational constants in MHz :     0.000000     0.000000     0.000000

                             ****ORCA TERMINATED NORMALLY****
TOTAL RUN TIME: 0 days 0 hours 0 minutes 3 seconds 156 msec
