                         Program Version 5.0.1 -  RELEASE  -
|  1> !uks pbe nori verytightscf soscf notrah
|  2>
|  3> %pal
|  4>   nprocs 32
|  5> end
|  6> %coords
|  7>   charge 0
|  8>   mult 2
|  9>   units bohrs
| 10>   coords
| 11>     Rb 0.0 0.0 0.0
| 12>   end
| 13> end
| 14> %basis
| 15>   gtoname "Rb_ugbs.basis"
| 16>   delECP Rb
| 17> end
| 18> %rel
| 19>   method zora
| 20>   modelpot 1, 0, 0, 0
| 21>   c 137.035999084
| 22> endd                         ****END OF INPUT****

CARTESIAN COORDINATES (ANGSTROEM)
---------------------------------
  Rb     0.000000    0.000000    0.000000

 Total Charge           Charge          ....    0
 Multiplicity           Mult            ....    2
 Number of Electrons    NEL             ....   37
 Basis Dimension        Dim             ....  160

ORBITAL ENERGIES
----------------
                 SPIN UP ORBITALS
  NO   OCC          E(Eh)            E(eV)
   0   1.0000    -564.507649    -15361.0341
   1   1.0000     -74.318747     -2022.3159
   2   1.0000     -65.818386     -1791.0093
   3   1.0000     -65.818386     -1791.0093
   4   1.0000     -65.818386     -1791.0093
   5   1.0000     -10.998161      -299.2752
   6   1.0000      -8.288372      -225.5381
   7   1.0000      -8.288372      -225.5381
   8   1.0000      -8.288372      -225.5381
   9   1.0000      -3.817587      -103.8818
  10   1.0000      -3.817587      -103.8818
  11   1.0000      -3.817587      -103.8818
  12   1.0000      -3.817587      -103.8818
  13   1.0000      -3.817587      -103.8818
  14   1.0000      -1.174282       -31.9538
  15   1.0000      -0.586333       -15.9549
  16   1.0000      -0.586333       -15.9549
  17   1.0000      -0.586333       -15.9549
  18   1.0000      -0.089466        -2.4345
  19   0.0000       0.013434         0.3655
  20   0.0000       0.013434         0.3655
  21   0.0000       0.013434         0.3655
  22   0.0000       0.016818         0.4576
  23   0.0000       0.161299         4.3892

                 SPIN DOWN ORBITALS
  NO   OCC          E(Eh)            E(eV)
   0   1.0000    -564.507435    -15361.0282
   1   1.0000     -74.318588     -2022.3116
   2   1.0000     -65.818246     -1791.0055
   3   1.0000     -65.818246     -1791.0055
   4   1.0000     -65.818246     -1791.0055
   5   1.0000     -10.997873      -299.2673
   6   1.0000      -8.288062      -225.5296
   7   1.0000      -8.288062      -225.5296
   8   1.0000      -8.288062      -225.5296
   9   1.0000      -3.817228      -103.8721
  10   1.0000      -3.817228      -103.8721
  11   1.0000      -3.817228      -103.8721
  12   1.0000      -3.817228      -103.8721
  13   1.0000      -3.817228      -103.8721
  14   1.0000      -1.172523       -31.9060
  15   1.0000      -0.583045       -15.8655
  16   1.0000      -0.583045       -15.8655
  17   1.0000      -0.583045       -15.8655
  18   0.0000      -0.057729        -1.5709
  19   0.0000       0.045541         1.2392
  20   0.0000       0.045541         1.2392
  21   0.0000       0.045541         1.2392
  22   0.0000       0.053110         1.4452

MULLIKEN ATOMIC CHARGES AND SPIN POPULATIONS
--------------------------------------------
   0 Rb:    0.000000    1.000000
Sum of atomic charges         :    0.0000000

LOEWDIN ATOMIC CHARGES AND SPIN POPULATIONS
-------------------------------------------
   0 Rb:    0.000000    1.000000

FINAL SINGLE POINT ENERGY     -3013.625291731047

DIPOLE MOMENT
-------------
                                X             Y             Z
Electronic contribution:      0.00000      -0.00000      -0.00000
Nuclear contribution   :      0.00000       0.00000       0.00000
                        -----------------------------------------
Total Dipole Moment    :      0.00000      -0.00000      -0.00000
                        -----------------------------------------
Magnitude (a.u.)       :      0.00000
Magnitude (Debye)      :      0.00000

Rotational constants in cm-1:     0.000000     0.000000     0.000000
Rotational constants in MHz :     0.000000     0.000000     0.000000

                             ****ORCA TERMINATED NORMALLY****
TOTAL RUN TIME: 0 days 0 hours 2 minutes 8 seconds 110 msec
