                         Program Version 5.0.1 -  RELEASE  -
|  1> !uks pbe nori verytightscf soscf notrah
|  2>
|  3> %pal
|  4>   nprocs 32
|  5> end
|  6> %coords
|  7>   charge 0
|  8>   mult 1
|  9>   units bohrs
| 10>   coords
| 11>     Xe 0.0 0.0 0.0
| 12>   end
| 13> end
| 14> %basis
| 15>   gtoname "Xe_ugbs.basis"
| 16>   delECP Xe
| 17> end
| 18> %rel
| 19>   method zora
| 20>   modelpot 1, 0, 0, 0
| 21>   c 137.035999084
| 22> endd                         ****END OF INPUT****

CARTESIAN COORDINATES (ANGSTROEM)
---------------------------------
  Xe     0.000000    0.000000    0.000000

 Total Charge           Charge          ....    0
 Multiplicity           Mult            ....    1
 Number of Electrons    NEL             ....   54
 Basis Dimension        Dim             ....  177

ORBITAL ENERGIES
----------------
                 SPIN UP ORBITALS
  NO   OCC          E(Eh)            E(eV)
   0   1.0000   -14051382.172157   -382357547.5865
   1   1.0000   -1219.447395    -33182.8506
   2   1.0000    -181.431919     -4937.0135
   3   1.0000    -162.120480     -4411.5225
   4   1.0000    -162.114875     -4411.3700
   5   1.0000    -162.114875     -4411.3700
   6   1.0000     -35.908146      -977.1103
   7   1.0000     -29.778836      -810.3233
   8   1.0000     -29.764059      -809.9212
   9   1.0000     -29.764059      -809.9212
  10   1.0000     -20.655781      -562.0724
  11   1.0000     -20.652501      -561.9831
  12   1.0000     -20.652501      -561.9831
  13   1.0000     -20.642593      -561.7135
  14   1.0000     -20.642593      -561.7135
  15   1.0000      -6.115041      -166.3987
  16   1.0000      -4.256213      -115.8174
  17   1.0000      -4.219879      -114.8287
  18   1.0000      -4.219879      -114.8287
  19   1.0000      -1.548257       -42.1302
  20   1.0000      -1.538383       -41.8615
  21   1.0000      -1.538383       -41.8615
  22   1.0000      -1.508237       -41.0412
  23   1.0000      -1.508237       -41.0412
  24   1.0000      -0.561861       -15.2890
  25   1.0000      -0.204915        -5.5760
  26   1.0000      -0.204915        -5.5760
  27   0.0000      -0.242216        -6.5910
  28   0.0000       0.046410         1.2629
  29   0.0000       0.117968         3.2101
  30   0.0000       0.133526         3.6334
  31   0.0000       0.133526         3.6334

                 SPIN DOWN ORBITALS
  NO   OCC          E(Eh)            E(eV)
   0   1.0000   -14051382.172157   -382357547.5865
   1   1.0000   -1219.447395    -33182.8506
   2   1.0000    -181.431919     -4937.0135
   3   1.0000    -162.120480     -4411.5225
   4   1.0000    -162.114875     -4411.3700
   5   1.0000    -162.114875     -4411.3700
   6   1.0000     -35.908146      -977.1103
   7   1.0000     -29.778836      -810.3233
   8   1.0000     -29.764059      -809.9212
   9   1.0000     -29.764059      -809.9212
  10   1.0000     -20.655781      -562.0724
  11   1.0000     -20.652501      -561.9831
  12   1.0000     -20.652501      -561.9831
  13   1.0000     -20.642593      -561.7135
  14   1.0000     -20.642593      -561.7135
  15   1.0000      -6.115041      -166.3987
  16   1.0000      -4.256213      -115.8174
  17   1.0000      -4.219879      -114.8287
  18   1.0000      -4.219879      -114.8287
  19   1.0000      -1.548257       -42.1302
  20   1.0000      -1.538383       -41.8615
  21   1.0000      -1.538383       -41.8615
  22   1.0000      -1.508237       -41.0412
  23   1.0000      -1.508237       -41.0412
  24   1.0000      -0.561861       -15.2890
  25   1.0000      -0.204915        -5.5760
  26   1.0000      -0.204915        -5.5760
  27   0.0000      -0.242216        -6.5910
  28   0.0000       0.046410         1.2629
  29   0.0000       0.117968         3.2101
  30   0.0000       0.133526         3.6334
  31   0.0000       0.133526         3.6334

MULLIKEN ATOMIC CHARGES AND SPIN POPULATIONS
--------------------------------------------
   0 Xe:   -0.000000   -0.000000
Sum of atomic charges         :   -0.0000000

LOEWDIN ATOMIC CHARGES AND SPIN POPULATIONS
-------------------------------------------
   0 Xe:   -0.000000   -0.000000

FINAL SINGLE POINT ENERGY   -28113332.882863864303

DIPOLE MOMENT
-------------
                                X             Y             Z
Electronic contribution:      0.00000       0.00000       0.00000
Nuclear contribution   :      0.00000       0.00000       0.00000
                        -----------------------------------------
Total Dipole Moment    :      0.00000       0.00000       0.00000
                        -----------------------------------------
Magnitude (a.u.)       :      0.00000
Magnitude (Debye)      :      0.00000

Rotational constants in cm-1:     0.000000     0.000000     0.000000
Rotational constants in MHz :     0.000000     0.000000     0.000000

                             ****ORCA TERMINATED NORMALLY****
TOTAL RUN TIME: 0 days 0 hours 4 minutes 7 seconds 750 msec
