                         Program Version 4.2.1 -  RELEASE  -
|  1> ! LDA pc-2 nori grid5 finalgrid6 verytightscf
|  2> %Pal NProcs 18 End
|  3>
|  4> *xyz 0 1
|  5> C -0.0190572749 -0.6845195756 -0.0000000839
|  6> B -0.0207972952 0.8729523951 -0.0000000656
|  7> H 1.0512614815 -0.9395660726 0.0000010826
|  8> H -0.4362896177 -1.1431007759 0.8927422542
|  9> H -0.4362878975 -1.1431009662 -0.8927431359
| 10> H 0.0151838060 1.4835176231 -1.0228906497
| 11> H 0.0151867978 1.4835173722 1.0228905983
| 12> **                         ****END OF INPUT****

CARTESIAN COORDINATES (ANGSTROEM)
---------------------------------
  C     -0.019057   -0.684520   -0.000000
  B     -0.020797    0.872952   -0.000000
  H      1.051261   -0.939566    0.000001
  H     -0.436290   -1.143101    0.892742
  H     -0.436288   -1.143101   -0.892743
  H      0.015184    1.483518   -1.022891
  H      0.015187    1.483517    1.022891

 Total Charge           Charge          ....    0
 Multiplicity           Mult            ....    1
 Number of Electrons    NEL             ....   16
 Basis Dimension        Dim             ....  130

ORBITAL ENERGIES
----------------

  NO   OCC          E(Eh)            E(eV)
   0   2.0000      -9.753037      -265.3936
   1   2.0000      -6.423329      -174.7877
   2   2.0000      -0.636844       -17.3294
   3   2.0000      -0.431629       -11.7452
   4   2.0000      -0.375530       -10.2187
   5   2.0000      -0.365307        -9.9405
   6   2.0000      -0.297410        -8.0929
   7   2.0000      -0.278914        -7.5896
   8   0.0000      -0.094004        -2.5580
   9   0.0000       0.011567         0.3148
  10   0.0000       0.049973         1.3598
  11   0.0000       0.052788         1.4364
  12   0.0000       0.054557         1.4846

MULLIKEN ATOMIC CHARGES
-----------------------
   0 C :   -0.327591
   1 B :    0.024563
   2 H :    0.094926
   3 H :    0.102529
   4 H :    0.102529
   5 H :    0.001521
   6 H :    0.001521
Sum of atomic charges:    0.0000000

LOEWDIN ATOMIC CHARGES
----------------------
   0 C :   -0.069888
   1 B :    0.086506
   2 H :    0.042687
   3 H :    0.010253
   4 H :    0.010253
   5 H :   -0.039905
   6 H :   -0.039905

  Mayer bond orders larger than 0.100000
B(  0-C ,  1-B ) :   1.0529 B(  0-C ,  2-H ) :   0.9217 B(  0-C ,  3-H ) :   0.9683
B(  0-C ,  4-H ) :   0.9683 B(  1-B ,  5-H ) :   0.9918 B(  1-B ,  6-H ) :   0.9918

FINAL SINGLE POINT ENERGY       -65.255713757935

DIPOLE MOMENT
-------------
                                X             Y             Z
Electronic contribution:     -0.19478       0.73332      -0.00000
Nuclear contribution   :      0.24617      -1.03742       0.00000
                        -----------------------------------------
Total Dipole Moment    :      0.05139      -0.30410       0.00000
                        -----------------------------------------
Magnitude (a.u.)       :      0.30842
Magnitude (Debye)      :      0.78393

Rotational constants in cm-1:     3.228710     0.723532     0.660823
Rotational constants in MHz : 96794.286037 21690.947830 19810.964189

                             ****ORCA TERMINATED NORMALLY****
TOTAL RUN TIME: 0 days 0 hours 0 minutes 5 seconds 429 msec
