                         Program Version 4.2.1 -  RELEASE  -
|  1> ! LDA cc-pvtz nori grid5 finalgrid6 verytightscf
|  2> %Pal NProcs 18 End
|  3>
|  4> *xyz 0 1
|  5> C -0.0190572749 -0.6845195756 -0.0000000839
|  6> B -0.0207972952 0.8729523951 -0.0000000656
|  7> H 1.0512614815 -0.9395660726 0.0000010826
|  8> H -0.4362896177 -1.1431007759 0.8927422542
|  9> H -0.4362878975 -1.1431009662 -0.8927431359
| 10> H 0.0151838060 1.4835176231 -1.0228906497
| 11> H 0.0151867978 1.4835173722 1.0228905983
| 12> **                         ****END OF INPUT****

CARTESIAN COORDINATES (ANGSTROEM)
---------------------------------
  C     -0.019057   -0.684520   -0.000000
  B     -0.020797    0.872952   -0.000000
  H      1.051261   -0.939566    0.000001
  H     -0.436290   -1.143101    0.892742
  H     -0.436288   -1.143101   -0.892743
  H      0.015184    1.483518   -1.022891
  H      0.015187    1.483517    1.022891

 Total Charge           Charge          ....    0
 Multiplicity           Mult            ....    1
 Number of Electrons    NEL             ....   16
 Basis Dimension        Dim             ....  130

ORBITAL ENERGIES
----------------

  NO   OCC          E(Eh)            E(eV)
   0   2.0000      -9.763072      -265.6667
   1   2.0000      -6.431098      -174.9991
   2   2.0000      -0.636907       -17.3311
   3   2.0000      -0.431661       -11.7461
   4   2.0000      -0.375195       -10.2096
   5   2.0000      -0.364925        -9.9301
   6   2.0000      -0.297076        -8.0838
   7   2.0000      -0.278693        -7.5836
   8   0.0000      -0.093336        -2.5398
   9   0.0000       0.028711         0.7813
  10   0.0000       0.073526         2.0007
  11   0.0000       0.076980         2.0947
  12   0.0000       0.101185         2.7534

MULLIKEN ATOMIC CHARGES
-----------------------
   0 C :   -0.385390
   1 B :   -0.118145
   2 H :    0.124573
   3 H :    0.128063
   4 H :    0.128063
   5 H :    0.061418
   6 H :    0.061418
Sum of atomic charges:   -0.0000000

LOEWDIN ATOMIC CHARGES
----------------------
   0 C :    0.111519
   1 B :   -0.074818
   2 H :    0.031926
   3 H :   -0.000819
   4 H :   -0.000819
   5 H :   -0.033495
   6 H :   -0.033495

  Mayer bond orders larger than 0.100000
B(  0-C ,  1-B ) :   1.0790 B(  0-C ,  2-H ) :   0.9048 B(  0-C ,  3-H ) :   0.9514
B(  0-C ,  4-H ) :   0.9514 B(  1-B ,  5-H ) :   0.9764 B(  1-B ,  6-H ) :   0.9764

FINAL SINGLE POINT ENERGY       -65.253856940941

DIPOLE MOMENT
-------------
                                X             Y             Z
Electronic contribution:     -0.19524       0.72551      -0.00000
Nuclear contribution   :      0.24617      -1.03742       0.00000
                        -----------------------------------------
Total Dipole Moment    :      0.05093      -0.31191       0.00000
                        -----------------------------------------
Magnitude (a.u.)       :      0.31604
Magnitude (Debye)      :      0.80331

Rotational constants in cm-1:     3.228710     0.723532     0.660823
Rotational constants in MHz : 96794.286037 21690.947830 19810.964189

                             ****ORCA TERMINATED NORMALLY****
TOTAL RUN TIME: 0 days 0 hours 0 minutes 5 seconds 583 msec
