                         Program Version 4.2.1 -  RELEASE  -
|  1> ! LDA cc-pcv5z nori grid5 finalgrid6 verytightscf
|  2> %Pal NProcs 18 End
|  3>
|  4> *xyz 0 1
|  5> C -0.0190572749 -0.6845195756 -0.0000000839
|  6> B -0.0207972952 0.8729523951 -0.0000000656
|  7> H 1.0512614815 -0.9395660726 0.0000010826
|  8> H -0.4362896177 -1.1431007759 0.8927422542
|  9> H -0.4362878975 -1.1431009662 -0.8927431359
| 10> H 0.0151838060 1.4835176231 -1.0228906497
| 11> H 0.0151867978 1.4835173722 1.0228905983
| 12> **                         ****END OF INPUT****

CARTESIAN COORDINATES (ANGSTROEM)
---------------------------------
  C     -0.019057   -0.684520   -0.000000
  B     -0.020797    0.872952   -0.000000
  H      1.051261   -0.939566    0.000001
  H     -0.436290   -1.143101    0.892742
  H     -0.436288   -1.143101   -0.892743
  H      0.015184    1.483518   -1.022891
  H      0.015187    1.483517    1.022891

 Total Charge           Charge          ....    0
 Multiplicity           Mult            ....    1
 Number of Electrons    NEL             ....   16
 Basis Dimension        Dim             ....  565

ORBITAL ENERGIES
----------------

  NO   OCC          E(Eh)            E(eV)
   0   2.0000      -9.762461      -265.6501
   1   2.0000      -6.432090      -175.0261
   2   2.0000      -0.636938       -17.3320
   3   2.0000      -0.431852       -11.7513
   4   2.0000      -0.375607       -10.2208
   5   2.0000      -0.365311        -9.9406
   6   2.0000      -0.297506        -8.0956
   7   2.0000      -0.279179        -7.5969
   8   0.0000      -0.094144        -2.5618
   9   0.0000       0.005874         0.1598
  10   0.0000       0.042396         1.1537
  11   0.0000       0.046346         1.2611
  12   0.0000       0.048728         1.3259

MULLIKEN ATOMIC CHARGES
-----------------------
   0 C :   -0.433580
   1 B :    0.117936
   2 H :    0.140978
   3 H :    0.128061
   4 H :    0.128061
   5 H :   -0.040728
   6 H :   -0.040728
Sum of atomic charges:    0.0000000

LOEWDIN ATOMIC CHARGES
----------------------
   0 C :    0.537059
   1 B :   -0.019776
   2 H :   -0.094741
   3 H :   -0.120220
   4 H :   -0.120220
   5 H :   -0.091051
   6 H :   -0.091051

  Mayer bond orders larger than 0.100000
B(  0-C ,  1-B ) :   1.0710 B(  0-C ,  2-H ) :   0.9071 B(  0-C ,  3-H ) :   0.9599
B(  0-C ,  4-H ) :   0.9599 B(  1-B ,  5-H ) :   0.9866 B(  1-B ,  6-H ) :   0.9866

FINAL SINGLE POINT ENERGY       -65.260851067166

DIPOLE MOMENT
-------------
                                X             Y             Z
Electronic contribution:     -0.19831       0.73538      -0.00000
Nuclear contribution   :      0.24617      -1.03742       0.00000
                        -----------------------------------------
Total Dipole Moment    :      0.04786      -0.30204       0.00000
                        -----------------------------------------
Magnitude (a.u.)       :      0.30581
Magnitude (Debye)      :      0.77730

Rotational constants in cm-1:     3.228710     0.723532     0.660823
Rotational constants in MHz : 96794.286037 21690.947830 19810.964189

                             ****ORCA TERMINATED NORMALLY****
TOTAL RUN TIME: 0 days 0 hours 3 minutes 37 seconds 124 msec
