                         Program Version 4.2.1 -  RELEASE  -
|  1> ! LDA zora-def2-svp nori grid5 finalgrid6 verytightscf
|  2> %Pal NProcs 18 End
|  3>
|  4> *xyz 0 1
|  5> C -0.0190572749 -0.6845195756 -0.0000000839
|  6> B -0.0207972952 0.8729523951 -0.0000000656
|  7> H 1.0512614815 -0.9395660726 0.0000010826
|  8> H -0.4362896177 -1.1431007759 0.8927422542
|  9> H -0.4362878975 -1.1431009662 -0.8927431359
| 10> H 0.0151838060 1.4835176231 -1.0228906497
| 11> H 0.0151867978 1.4835173722 1.0228905983
| 12> **                         ****END OF INPUT****

CARTESIAN COORDINATES (ANGSTROEM)
---------------------------------
  C     -0.019057   -0.684520   -0.000000
  B     -0.020797    0.872952   -0.000000
  H      1.051261   -0.939566    0.000001
  H     -0.436290   -1.143101    0.892742
  H     -0.436288   -1.143101   -0.892743
  H      0.015184    1.483518   -1.022891
  H      0.015187    1.483517    1.022891

 Total Charge           Charge          ....    0
 Multiplicity           Mult            ....    1
 Number of Electrons    NEL             ....   16
 Basis Dimension        Dim             ....   53

ORBITAL ENERGIES
----------------

  NO   OCC          E(Eh)            E(eV)
   0   2.0000      -9.753112      -265.3957
   1   2.0000      -6.418593      -174.6588
   2   2.0000      -0.627818       -17.0838
   3   2.0000      -0.425415       -11.5761
   4   2.0000      -0.374017       -10.1775
   5   2.0000      -0.364190        -9.9101
   6   2.0000      -0.295465        -8.0400
   7   2.0000      -0.276922        -7.5354
   8   0.0000      -0.090965        -2.4753
   9   0.0000       0.047804         1.3008
  10   0.0000       0.092903         2.5280
  11   0.0000       0.097824         2.6619
  12   0.0000       0.144418         3.9298

MULLIKEN ATOMIC CHARGES
-----------------------
   0 C :   -0.383946
   1 B :   -0.047163
   2 H :    0.140390
   3 H :    0.130492
   4 H :    0.130492
   5 H :    0.014867
   6 H :    0.014867
Sum of atomic charges:    0.0000000

LOEWDIN ATOMIC CHARGES
----------------------
   0 C :   -0.231072
   1 B :   -0.011889
   2 H :    0.110350
   3 H :    0.074477
   4 H :    0.074477
   5 H :   -0.008171
   6 H :   -0.008171

  Mayer bond orders larger than 0.100000
B(  0-C ,  1-B ) :   1.1352 B(  0-C ,  2-H ) :   0.9104 B(  0-C ,  3-H ) :   0.9564
B(  0-C ,  4-H ) :   0.9564 B(  1-B ,  5-H ) :   0.9817 B(  1-B ,  6-H ) :   0.9817

FINAL SINGLE POINT ENERGY       -65.181194598406

DIPOLE MOMENT
-------------
                                X             Y             Z
Electronic contribution:     -0.17651       0.69399      -0.00000
Nuclear contribution   :      0.24617      -1.03742       0.00000
                        -----------------------------------------
Total Dipole Moment    :      0.06966      -0.34343       0.00000
                        -----------------------------------------
Magnitude (a.u.)       :      0.35042
Magnitude (Debye)      :      0.89070

Rotational constants in cm-1:     3.228710     0.723532     0.660823
Rotational constants in MHz : 96794.286037 21690.947830 19810.964189

                             ****ORCA TERMINATED NORMALLY****
TOTAL RUN TIME: 0 days 0 hours 0 minutes 3 seconds 918 msec
