                         Program Version 4.2.1 -  RELEASE  -
|  1> ! LDA cc-pcvdz nori grid5 finalgrid6 verytightscf
|  2> %Pal NProcs 18 End
|  3>
|  4> *xyz 0 1
|  5> C -0.0190572749 -0.6845195756 -0.0000000839
|  6> B -0.0207972952 0.8729523951 -0.0000000656
|  7> H 1.0512614815 -0.9395660726 0.0000010826
|  8> H -0.4362896177 -1.1431007759 0.8927422542
|  9> H -0.4362878975 -1.1431009662 -0.8927431359
| 10> H 0.0151838060 1.4835176231 -1.0228906497
| 11> H 0.0151867978 1.4835173722 1.0228905983
| 12> **                         ****END OF INPUT****

CARTESIAN COORDINATES (ANGSTROEM)
---------------------------------
  C     -0.019057   -0.684520   -0.000000
  B     -0.020797    0.872952   -0.000000
  H      1.051261   -0.939566    0.000001
  H     -0.436290   -1.143101    0.892742
  H     -0.436288   -1.143101   -0.892743
  H      0.015184    1.483518   -1.022891
  H      0.015187    1.483517    1.022891

 Total Charge           Charge          ....    0
 Multiplicity           Mult            ....    1
 Number of Electrons    NEL             ....   16
 Basis Dimension        Dim             ....   61

ORBITAL ENERGIES
----------------

  NO   OCC          E(Eh)            E(eV)
   0   2.0000      -9.771986      -265.9093
   1   2.0000      -6.437437      -175.1716
   2   2.0000      -0.633892       -17.2491
   3   2.0000      -0.428125       -11.6499
   4   2.0000      -0.370493       -10.0816
   5   2.0000      -0.360461        -9.8087
   6   2.0000      -0.292066        -7.9475
   7   2.0000      -0.273476        -7.4417
   8   0.0000      -0.088474        -2.4075
   9   0.0000       0.053532         1.4567
  10   0.0000       0.094258         2.5649
  11   0.0000       0.100047         2.7224
  12   0.0000       0.129313         3.5188

MULLIKEN ATOMIC CHARGES
-----------------------
   0 C :   -0.149393
   1 B :   -0.100763
   2 H :    0.093313
   3 H :    0.069124
   4 H :    0.069124
   5 H :    0.009298
   6 H :    0.009298
Sum of atomic charges:   -0.0000000

LOEWDIN ATOMIC CHARGES
----------------------
   0 C :   -0.139962
   1 B :   -0.054641
   2 H :    0.098092
   3 H :    0.060006
   4 H :    0.060006
   5 H :   -0.011750
   6 H :   -0.011750

  Mayer bond orders larger than 0.100000
B(  0-C ,  1-B ) :   1.2210 B(  0-C ,  2-H ) :   0.8985 B(  0-C ,  3-H ) :   0.9477
B(  0-C ,  4-H ) :   0.9477 B(  1-B ,  5-H ) :   0.9681 B(  1-B ,  6-H ) :   0.9681

FINAL SINGLE POINT ENERGY       -65.226998981334

DIPOLE MOMENT
-------------
                                X             Y             Z
Electronic contribution:     -0.18085       0.69692      -0.00000
Nuclear contribution   :      0.24617      -1.03742       0.00000
                        -----------------------------------------
Total Dipole Moment    :      0.06532      -0.34050       0.00000
                        -----------------------------------------
Magnitude (a.u.)       :      0.34671
Magnitude (Debye)      :      0.88126

Rotational constants in cm-1:     3.228710     0.723532     0.660823
Rotational constants in MHz : 96794.286037 21690.947830 19810.964189

                             ****ORCA TERMINATED NORMALLY****
TOTAL RUN TIME: 0 days 0 hours 0 minutes 4 seconds 46 msec
