                         Program Version 4.2.1 -  RELEASE  -
|  1> ! LDA zora-def2-qzvpp nori grid5 finalgrid6 verytightscf
|  2> %Pal NProcs 18 End
|  3>
|  4> *xyz 0 1
|  5> C -0.0190572749 -0.6845195756 -0.0000000839
|  6> B -0.0207972952 0.8729523951 -0.0000000656
|  7> H 1.0512614815 -0.9395660726 0.0000010826
|  8> H -0.4362896177 -1.1431007759 0.8927422542
|  9> H -0.4362878975 -1.1431009662 -0.8927431359
| 10> H 0.0151838060 1.4835176231 -1.0228906497
| 11> H 0.0151867978 1.4835173722 1.0228905983
| 12> **                         ****END OF INPUT****

CARTESIAN COORDINATES (ANGSTROEM)
---------------------------------
  C     -0.019057   -0.684520   -0.000000
  B     -0.020797    0.872952   -0.000000
  H      1.051261   -0.939566    0.000001
  H     -0.436290   -1.143101    0.892742
  H     -0.436288   -1.143101   -0.892743
  H      0.015184    1.483518   -1.022891
  H      0.015187    1.483517    1.022891

 Total Charge           Charge          ....    0
 Multiplicity           Mult            ....    1
 Number of Electrons    NEL             ....   16
 Basis Dimension        Dim             ....  266

ORBITAL ENERGIES
----------------

  NO   OCC          E(Eh)            E(eV)
   0   2.0000      -9.763467      -265.6774
   1   2.0000      -6.432617      -175.0404
   2   2.0000      -0.636991       -17.3334
   3   2.0000      -0.431874       -11.7519
   4   2.0000      -0.375593       -10.2204
   5   2.0000      -0.365294        -9.9402
   6   2.0000      -0.297445        -8.0939
   7   2.0000      -0.279153        -7.5961
   8   0.0000      -0.094037        -2.5589
   9   0.0000       0.010263         0.2793
  10   0.0000       0.044535         1.2119
  11   0.0000       0.048907         1.3308
  12   0.0000       0.052938         1.4405

MULLIKEN ATOMIC CHARGES
-----------------------
   0 C :   -0.052068
   1 B :    0.320977
   2 H :   -0.009417
   3 H :   -0.019681
   4 H :   -0.019681
   5 H :   -0.110064
   6 H :   -0.110065
Sum of atomic charges:    0.0000000

LOEWDIN ATOMIC CHARGES
----------------------
   0 C :    0.270693
   1 B :   -0.067195
   2 H :   -0.016521
   3 H :   -0.046140
   4 H :   -0.046140
   5 H :   -0.047349
   6 H :   -0.047349

  Mayer bond orders larger than 0.100000
B(  0-C ,  1-B ) :   0.9888 B(  0-C ,  2-H ) :   0.9160 B(  0-C ,  3-H ) :   0.9760
B(  0-C ,  4-H ) :   0.9760 B(  1-B ,  5-H ) :   0.9741 B(  1-B ,  6-H ) :   0.9741

FINAL SINGLE POINT ENERGY       -65.260055918429

DIPOLE MOMENT
-------------
                                X             Y             Z
Electronic contribution:     -0.19835       0.73446      -0.00000
Nuclear contribution   :      0.24617      -1.03742       0.00000
                        -----------------------------------------
Total Dipole Moment    :      0.04782      -0.30296       0.00000
                        -----------------------------------------
Magnitude (a.u.)       :      0.30671
Magnitude (Debye)      :      0.77959

Rotational constants in cm-1:     3.228710     0.723532     0.660823
Rotational constants in MHz : 96794.286037 21690.947830 19810.964189

                             ****ORCA TERMINATED NORMALLY****
TOTAL RUN TIME: 0 days 0 hours 0 minutes 17 seconds 27 msec
