                         Program Version 4.2.1 -  RELEASE  -
|  1> ! LDA pc-4 nori grid5 finalgrid6 verytightscf
|  2> %Pal NProcs 18 End
|  3>
|  4> *xyz 0 1
|  5> C -0.0190572749 -0.6845195756 -0.0000000839
|  6> B -0.0207972952 0.8729523951 -0.0000000656
|  7> H 1.0512614815 -0.9395660726 0.0000010826
|  8> H -0.4362896177 -1.1431007759 0.8927422542
|  9> H -0.4362878975 -1.1431009662 -0.8927431359
| 10> H 0.0151838060 1.4835176231 -1.0228906497
| 11> H 0.0151867978 1.4835173722 1.0228905983
| 12> **                         ****END OF INPUT****

CARTESIAN COORDINATES (ANGSTROEM)
---------------------------------
  C     -0.019057   -0.684520   -0.000000
  B     -0.020797    0.872952   -0.000000
  H      1.051261   -0.939566    0.000001
  H     -0.436290   -1.143101    0.892742
  H     -0.436288   -1.143101   -0.892743
  H      0.015184    1.483518   -1.022891
  H      0.015187    1.483517    1.022891

 Total Charge           Charge          ....    0
 Multiplicity           Mult            ....    1
 Number of Electrons    NEL             ....   16
 Basis Dimension        Dim             ....  533

ORBITAL ENERGIES
----------------

  NO   OCC          E(Eh)            E(eV)
   0   2.0000      -9.762483      -265.6507
   1   2.0000      -6.432110      -175.0266
   2   2.0000      -0.636952       -17.3323
   3   2.0000      -0.431869       -11.7518
   4   2.0000      -0.375624       -10.2213
   5   2.0000      -0.365326        -9.9410
   6   2.0000      -0.297525        -8.0961
   7   2.0000      -0.279199        -7.5974
   8   0.0000      -0.094222        -2.5639
   9   0.0000      -0.007328        -0.1994
  10   0.0000       0.018296         0.4979
  11   0.0000       0.019542         0.5318
  12   0.0000       0.026390         0.7181

MULLIKEN ATOMIC CHARGES
-----------------------
   0 C :   -0.286377
   1 B :    0.026311
   2 H :    0.090910
   3 H :    0.081793
   4 H :    0.081793
   5 H :    0.002785
   6 H :    0.002785
Sum of atomic charges:    0.0000000

LOEWDIN ATOMIC CHARGES
----------------------
   0 C :    0.554521
   1 B :    0.273226
   2 H :   -0.184640
   3 H :   -0.201010
   4 H :   -0.201010
   5 H :   -0.120544
   6 H :   -0.120544

  Mayer bond orders larger than 0.100000
B(  0-C ,  1-B ) :   1.0080 B(  0-C ,  2-H ) :   0.9123 B(  0-C ,  3-H ) :   0.9698
B(  0-C ,  4-H ) :   0.9698 B(  1-B ,  5-H ) :   0.9953 B(  1-B ,  6-H ) :   0.9953

FINAL SINGLE POINT ENERGY       -65.260955681356

DIPOLE MOMENT
-------------
                                X             Y             Z
Electronic contribution:     -0.19862       0.73619      -0.00000
Nuclear contribution   :      0.24617      -1.03742       0.00000
                        -----------------------------------------
Total Dipole Moment    :      0.04755      -0.30123       0.00000
                        -----------------------------------------
Magnitude (a.u.)       :      0.30496
Magnitude (Debye)      :      0.77516

Rotational constants in cm-1:     3.228710     0.723532     0.660823
Rotational constants in MHz : 96794.286037 21690.947830 19810.964189

                             ****ORCA TERMINATED NORMALLY****
TOTAL RUN TIME: 0 days 0 hours 2 minutes 56 seconds 340 msec
