                         Program Version 4.2.1 -  RELEASE  -
|  1> ! LDA pc-1 nori grid5 finalgrid6 verytightscf
|  2> %Pal NProcs 18 End
|  3>
|  4> *xyz 0 1
|  5> C -0.0190572749 -0.6845195756 -0.0000000839
|  6> B -0.0207972952 0.8729523951 -0.0000000656
|  7> H 1.0512614815 -0.9395660726 0.0000010826
|  8> H -0.4362896177 -1.1431007759 0.8927422542
|  9> H -0.4362878975 -1.1431009662 -0.8927431359
| 10> H 0.0151838060 1.4835176231 -1.0228906497
| 11> H 0.0151867978 1.4835173722 1.0228905983
| 12> **                         ****END OF INPUT****

CARTESIAN COORDINATES (ANGSTROEM)
---------------------------------
  C     -0.019057   -0.684520   -0.000000
  B     -0.020797    0.872952   -0.000000
  H      1.051261   -0.939566    0.000001
  H     -0.436290   -1.143101    0.892742
  H     -0.436288   -1.143101   -0.892743
  H      0.015184    1.483518   -1.022891
  H      0.015187    1.483517    1.022891

 Total Charge           Charge          ....    0
 Multiplicity           Mult            ....    1
 Number of Electrons    NEL             ....   16
 Basis Dimension        Dim             ....   53

ORBITAL ENERGIES
----------------

  NO   OCC          E(Eh)            E(eV)
   0   2.0000      -9.753105      -265.3955
   1   2.0000      -6.422099      -174.7542
   2   2.0000      -0.636848       -17.3295
   3   2.0000      -0.430951       -11.7268
   4   2.0000      -0.374237       -10.1835
   5   2.0000      -0.364618        -9.9218
   6   2.0000      -0.296259        -8.0616
   7   2.0000      -0.277488        -7.5508
   8   0.0000      -0.091829        -2.4988
   9   0.0000       0.040215         1.0943
  10   0.0000       0.079839         2.1725
  11   0.0000       0.085410         2.3241
  12   0.0000       0.101889         2.7725

MULLIKEN ATOMIC CHARGES
-----------------------
   0 C :   -0.518345
   1 B :    0.003837
   2 H :    0.156008
   3 H :    0.146659
   4 H :    0.146659
   5 H :    0.032591
   6 H :    0.032591
Sum of atomic charges:   -0.0000000

LOEWDIN ATOMIC CHARGES
----------------------
   0 C :   -0.324928
   1 B :    0.046831
   2 H :    0.126343
   3 H :    0.091569
   4 H :    0.091569
   5 H :   -0.015692
   6 H :   -0.015692

  Mayer bond orders larger than 0.100000
B(  0-C ,  1-B ) :   1.1257 B(  0-C ,  2-H ) :   0.9091 B(  0-C ,  3-H ) :   0.9520
B(  0-C ,  4-H ) :   0.9520 B(  1-B ,  5-H ) :   0.9732 B(  1-B ,  6-H ) :   0.9732

FINAL SINGLE POINT ENERGY       -65.215131979168

DIPOLE MOMENT
-------------
                                X             Y             Z
Electronic contribution:     -0.17389       0.72522      -0.00000
Nuclear contribution   :      0.24617      -1.03742       0.00000
                        -----------------------------------------
Total Dipole Moment    :      0.07228      -0.31219       0.00000
                        -----------------------------------------
Magnitude (a.u.)       :      0.32045
Magnitude (Debye)      :      0.81453

Rotational constants in cm-1:     3.228710     0.723532     0.660823
Rotational constants in MHz : 96794.286037 21690.947830 19810.964189

                             ****ORCA TERMINATED NORMALLY****
TOTAL RUN TIME: 0 days 0 hours 0 minutes 3 seconds 901 msec
