                         Program Version 4.2.1 -  RELEASE  -
|  1> ! LDA zora-def2-tzvp nori grid5 finalgrid6 verytightscf
|  2> %Pal NProcs 18 End
|  3>
|  4> *xyz 0 1
|  5> C -0.0190572749 -0.6845195756 -0.0000000839
|  6> B -0.0207972952 0.8729523951 -0.0000000656
|  7> H 1.0512614815 -0.9395660726 0.0000010826
|  8> H -0.4362896177 -1.1431007759 0.8927422542
|  9> H -0.4362878975 -1.1431009662 -0.8927431359
| 10> H 0.0151838060 1.4835176231 -1.0228906497
| 11> H 0.0151867978 1.4835173722 1.0228905983
| 12> **                         ****END OF INPUT****

CARTESIAN COORDINATES (ANGSTROEM)
---------------------------------
  C     -0.019057   -0.684520   -0.000000
  B     -0.020797    0.872952   -0.000000
  H      1.051261   -0.939566    0.000001
  H     -0.436290   -1.143101    0.892742
  H     -0.436288   -1.143101   -0.892743
  H      0.015184    1.483518   -1.022891
  H      0.015187    1.483517    1.022891

 Total Charge           Charge          ....    0
 Multiplicity           Mult            ....    1
 Number of Electrons    NEL             ....   16
 Basis Dimension        Dim             ....   94

ORBITAL ENERGIES
----------------

  NO   OCC          E(Eh)            E(eV)
   0   2.0000      -9.766423      -265.7579
   1   2.0000      -6.434400      -175.0889
   2   2.0000      -0.636845       -17.3294
   3   2.0000      -0.431577       -11.7438
   4   2.0000      -0.375345       -10.2137
   5   2.0000      -0.365147        -9.9361
   6   2.0000      -0.297132        -8.0854
   7   2.0000      -0.278736        -7.5848
   8   0.0000      -0.093415        -2.5420
   9   0.0000       0.018299         0.4979
  10   0.0000       0.067386         1.8337
  11   0.0000       0.067991         1.8501
  12   0.0000       0.076436         2.0799

MULLIKEN ATOMIC CHARGES
-----------------------
   0 C :   -0.442296
   1 B :   -0.124322
   2 H :    0.176595
   3 H :    0.167494
   4 H :    0.167494
   5 H :    0.027517
   6 H :    0.027517
Sum of atomic charges:    0.0000000

LOEWDIN ATOMIC CHARGES
----------------------
   0 C :   -0.335765
   1 B :   -0.279718
   2 H :    0.189808
   3 H :    0.151584
   4 H :    0.151584
   5 H :    0.061253
   6 H :    0.061253

  Mayer bond orders larger than 0.100000
B(  0-C ,  1-B ) :   1.1015 B(  0-C ,  2-H ) :   0.8885 B(  0-C ,  3-H ) :   0.9420
B(  0-C ,  4-H ) :   0.9420 B(  1-B ,  5-H ) :   0.9866 B(  1-B ,  6-H ) :   0.9866

FINAL SINGLE POINT ENERGY       -65.254440935262

DIPOLE MOMENT
-------------
                                X             Y             Z
Electronic contribution:     -0.19606       0.72640      -0.00000
Nuclear contribution   :      0.24617      -1.03742       0.00000
                        -----------------------------------------
Total Dipole Moment    :      0.05011      -0.31102       0.00000
                        -----------------------------------------
Magnitude (a.u.)       :      0.31503
Magnitude (Debye)      :      0.80074

Rotational constants in cm-1:     3.228710     0.723532     0.660823
Rotational constants in MHz : 96794.286037 21690.947830 19810.964189

                             ****ORCA TERMINATED NORMALLY****
TOTAL RUN TIME: 0 days 0 hours 0 minutes 4 seconds 481 msec
