                         Program Version 4.2.1 -  RELEASE  -
|  1> ! LDA cc-pcvtz nori grid5 finalgrid6 verytightscf
|  2> %Pal NProcs 18 End
|  3>
|  4> *xyz 0 1
|  5> C -0.0190572749 -0.6845195756 -0.0000000839
|  6> B -0.0207972952 0.8729523951 -0.0000000656
|  7> H 1.0512614815 -0.9395660726 0.0000010826
|  8> H -0.4362896177 -1.1431007759 0.8927422542
|  9> H -0.4362878975 -1.1431009662 -0.8927431359
| 10> H 0.0151838060 1.4835176231 -1.0228906497
| 11> H 0.0151867978 1.4835173722 1.0228905983
| 12> **                         ****END OF INPUT****

CARTESIAN COORDINATES (ANGSTROEM)
---------------------------------
  C     -0.019057   -0.684520   -0.000000
  B     -0.020797    0.872952   -0.000000
  H      1.051261   -0.939566    0.000001
  H     -0.436290   -1.143101    0.892742
  H     -0.436288   -1.143101   -0.892743
  H      0.015184    1.483518   -1.022891
  H      0.015187    1.483517    1.022891

 Total Charge           Charge          ....    0
 Multiplicity           Mult            ....    1
 Number of Electrons    NEL             ....   16
 Basis Dimension        Dim             ....  156

ORBITAL ENERGIES
----------------

  NO   OCC          E(Eh)            E(eV)
   0   2.0000      -9.762883      -265.6615
   1   2.0000      -6.431842      -175.0193
   2   2.0000      -0.636857       -17.3298
   3   2.0000      -0.431639       -11.7455
   4   2.0000      -0.375230       -10.2105
   5   2.0000      -0.364961        -9.9311
   6   2.0000      -0.297189        -8.0869
   7   2.0000      -0.278730        -7.5846
   8   0.0000      -0.093423        -2.5422
   9   0.0000       0.028500         0.7755
  10   0.0000       0.073375         1.9966
  11   0.0000       0.076950         2.0939
  12   0.0000       0.099478         2.7069

MULLIKEN ATOMIC CHARGES
-----------------------
   0 C :   -0.399236
   1 B :   -0.100311
   2 H :    0.127277
   3 H :    0.127783
   4 H :    0.127783
   5 H :    0.058352
   6 H :    0.058352
Sum of atomic charges:   -0.0000000

LOEWDIN ATOMIC CHARGES
----------------------
   0 C :    0.102312
   1 B :   -0.081215
   2 H :    0.034933
   3 H :    0.002125
   4 H :    0.002125
   5 H :   -0.030140
   6 H :   -0.030140

  Mayer bond orders larger than 0.100000
B(  0-C ,  1-B ) :   1.0920 B(  0-C ,  2-H ) :   0.9099 B(  0-C ,  3-H ) :   0.9621
B(  0-C ,  4-H ) :   0.9621 B(  1-B ,  5-H ) :   0.9807 B(  1-B ,  6-H ) :   0.9807

FINAL SINGLE POINT ENERGY       -65.255551635930

DIPOLE MOMENT
-------------
                                X             Y             Z
Electronic contribution:     -0.19501       0.72581      -0.00000
Nuclear contribution   :      0.24617      -1.03742       0.00000
                        -----------------------------------------
Total Dipole Moment    :      0.05117      -0.31161       0.00000
                        -----------------------------------------
Magnitude (a.u.)       :      0.31578
Magnitude (Debye)      :      0.80265

Rotational constants in cm-1:     3.228710     0.723532     0.660823
Rotational constants in MHz : 96794.286037 21690.947830 19810.964189

                             ****ORCA TERMINATED NORMALLY****
TOTAL RUN TIME: 0 days 0 hours 0 minutes 6 seconds 198 msec
