                         Program Version 4.2.1 -  RELEASE  -
|  1> ! LDA def2-qzvpp nori grid5 finalgrid6 verytightscf
|  2> %Pal NProcs 18 End
|  3>
|  4> *xyz 0 1
|  5> C -0.0190572749 -0.6845195756 -0.0000000839
|  6> B -0.0207972952 0.8729523951 -0.0000000656
|  7> H 1.0512614815 -0.9395660726 0.0000010826
|  8> H -0.4362896177 -1.1431007759 0.8927422542
|  9> H -0.4362878975 -1.1431009662 -0.8927431359
| 10> H 0.0151838060 1.4835176231 -1.0228906497
| 11> H 0.0151867978 1.4835173722 1.0228905983
| 12> **                         ****END OF INPUT****

CARTESIAN COORDINATES (ANGSTROEM)
---------------------------------
  C     -0.019057   -0.684520   -0.000000
  B     -0.020797    0.872952   -0.000000
  H      1.051261   -0.939566    0.000001
  H     -0.436290   -1.143101    0.892742
  H     -0.436288   -1.143101   -0.892743
  H      0.015184    1.483518   -1.022891
  H      0.015187    1.483517    1.022891

 Total Charge           Charge          ....    0
 Multiplicity           Mult            ....    1
 Number of Electrons    NEL             ....   16
 Basis Dimension        Dim             ....  264

ORBITAL ENERGIES
----------------

  NO   OCC          E(Eh)            E(eV)
   0   2.0000      -9.763521      -265.6789
   1   2.0000      -6.432599      -175.0399
   2   2.0000      -0.636982       -17.3331
   3   2.0000      -0.431864       -11.7516
   4   2.0000      -0.375571       -10.2198
   5   2.0000      -0.365275        -9.9396
   6   2.0000      -0.297437        -8.0937
   7   2.0000      -0.279134        -7.5956
   8   0.0000      -0.094034        -2.5588
   9   0.0000       0.010265         0.2793
  10   0.0000       0.044543         1.2121
  11   0.0000       0.048915         1.3311
  12   0.0000       0.052927         1.4402

MULLIKEN ATOMIC CHARGES
-----------------------
   0 C :   -0.361164
   1 B :    0.148169
   2 H :    0.089890
   3 H :    0.090503
   4 H :    0.090503
   5 H :   -0.028950
   6 H :   -0.028950
Sum of atomic charges:    0.0000000

LOEWDIN ATOMIC CHARGES
----------------------
   0 C :    0.269667
   1 B :   -0.068187
   2 H :   -0.016235
   3 H :   -0.045824
   4 H :   -0.045824
   5 H :   -0.046798
   6 H :   -0.046798

  Mayer bond orders larger than 0.100000
B(  0-C ,  1-B ) :   1.0024 B(  0-C ,  2-H ) :   0.9117 B(  0-C ,  3-H ) :   0.9658
B(  0-C ,  4-H ) :   0.9658 B(  1-B ,  5-H ) :   0.9844 B(  1-B ,  6-H ) :   0.9844

FINAL SINGLE POINT ENERGY       -65.260043712914

DIPOLE MOMENT
-------------
                                X             Y             Z
Electronic contribution:     -0.19826       0.73478      -0.00000
Nuclear contribution   :      0.24617      -1.03742       0.00000
                        -----------------------------------------
Total Dipole Moment    :      0.04791      -0.30264       0.00000
                        -----------------------------------------
Magnitude (a.u.)       :      0.30641
Magnitude (Debye)      :      0.77883

Rotational constants in cm-1:     3.228710     0.723532     0.660823
Rotational constants in MHz : 96794.286037 21690.947830 19810.964189

                             ****ORCA TERMINATED NORMALLY****
TOTAL RUN TIME: 0 days 0 hours 0 minutes 16 seconds 977 msec
