                         Program Version 4.2.1 -  RELEASE  -
|  1> ! LDA def2-tzvp nori grid5 finalgrid6 verytightscf
|  2> %Pal NProcs 18 End
|  3>
|  4> *xyz 0 1
|  5> C -0.0190572749 -0.6845195756 -0.0000000839
|  6> B -0.0207972952 0.8729523951 -0.0000000656
|  7> H 1.0512614815 -0.9395660726 0.0000010826
|  8> H -0.4362896177 -1.1431007759 0.8927422542
|  9> H -0.4362878975 -1.1431009662 -0.8927431359
| 10> H 0.0151838060 1.4835176231 -1.0228906497
| 11> H 0.0151867978 1.4835173722 1.0228905983
| 12> **                         ****END OF INPUT****

CARTESIAN COORDINATES (ANGSTROEM)
---------------------------------
  C     -0.019057   -0.684520   -0.000000
  B     -0.020797    0.872952   -0.000000
  H      1.051261   -0.939566    0.000001
  H     -0.436290   -1.143101    0.892742
  H     -0.436288   -1.143101   -0.892743
  H      0.015184    1.483518   -1.022891
  H      0.015187    1.483517    1.022891

 Total Charge           Charge          ....    0
 Multiplicity           Mult            ....    1
 Number of Electrons    NEL             ....   16
 Basis Dimension        Dim             ....   92

ORBITAL ENERGIES
----------------

  NO   OCC          E(Eh)            E(eV)
   0   2.0000      -9.760791      -265.6046
   1   2.0000      -6.429707      -174.9612
   2   2.0000      -0.636854       -17.3297
   3   2.0000      -0.431574       -11.7437
   4   2.0000      -0.375371       -10.2144
   5   2.0000      -0.365175        -9.9369
   6   2.0000      -0.297125        -8.0852
   7   2.0000      -0.278755        -7.5853
   8   0.0000      -0.093402        -2.5416
   9   0.0000       0.018353         0.4994
  10   0.0000       0.067388         1.8337
  11   0.0000       0.068015         1.8508
  12   0.0000       0.076528         2.0824

MULLIKEN ATOMIC CHARGES
-----------------------
   0 C :   -0.445628
   1 B :   -0.115726
   2 H :    0.174487
   3 H :    0.165865
   4 H :    0.165865
   5 H :    0.027569
   6 H :    0.027569
Sum of atomic charges:    0.0000000

LOEWDIN ATOMIC CHARGES
----------------------
   0 C :   -0.336452
   1 B :   -0.275899
   2 H :    0.189301
   3 H :    0.151058
   4 H :    0.151058
   5 H :    0.060467
   6 H :    0.060467

  Mayer bond orders larger than 0.100000
B(  0-C ,  1-B ) :   1.0935 B(  0-C ,  2-H ) :   0.8894 B(  0-C ,  3-H ) :   0.9428
B(  0-C ,  4-H ) :   0.9428 B(  1-B ,  5-H ) :   0.9851 B(  1-B ,  6-H ) :   0.9851

FINAL SINGLE POINT ENERGY       -65.252599176926

DIPOLE MOMENT
-------------
                                X             Y             Z
Electronic contribution:     -0.19612       0.72635      -0.00000
Nuclear contribution   :      0.24617      -1.03742       0.00000
                        -----------------------------------------
Total Dipole Moment    :      0.05005      -0.31107       0.00000
                        -----------------------------------------
Magnitude (a.u.)       :      0.31507
Magnitude (Debye)      :      0.80085

Rotational constants in cm-1:     3.228710     0.723532     0.660823
Rotational constants in MHz : 96794.286037 21690.947830 19810.964189

                             ****ORCA TERMINATED NORMALLY****
TOTAL RUN TIME: 0 days 0 hours 0 minutes 4 seconds 506 msec
