                         Program Version 4.2.1 -  RELEASE  -
|  1> ! LDA pc-3 nori grid5 finalgrid6 verytightscf
|  2> %Pal NProcs 18 End
|  3>
|  4> *xyz 0 1
|  5> C -0.0190572749 -0.6845195756 -0.0000000839
|  6> B -0.0207972952 0.8729523951 -0.0000000656
|  7> H 1.0512614815 -0.9395660726 0.0000010826
|  8> H -0.4362896177 -1.1431007759 0.8927422542
|  9> H -0.4362878975 -1.1431009662 -0.8927431359
| 10> H 0.0151838060 1.4835176231 -1.0228906497
| 11> H 0.0151867978 1.4835173722 1.0228905983
| 12> **                         ****END OF INPUT****

CARTESIAN COORDINATES (ANGSTROEM)
---------------------------------
  C     -0.019057   -0.684520   -0.000000
  B     -0.020797    0.872952   -0.000000
  H      1.051261   -0.939566    0.000001
  H     -0.436290   -1.143101    0.892742
  H     -0.436288   -1.143101   -0.892743
  H      0.015184    1.483518   -1.022891
  H      0.015187    1.483517    1.022891

 Total Charge           Charge          ....    0
 Multiplicity           Mult            ....    1
 Number of Electrons    NEL             ....   16
 Basis Dimension        Dim             ....  298

ORBITAL ENERGIES
----------------

  NO   OCC          E(Eh)            E(eV)
   0   2.0000      -9.762675      -265.6559
   1   2.0000      -6.432314      -175.0322
   2   2.0000      -0.636956       -17.3324
   3   2.0000      -0.431865       -11.7516
   4   2.0000      -0.375613       -10.2209
   5   2.0000      -0.365324        -9.9410
   6   2.0000      -0.297520        -8.0959
   7   2.0000      -0.279182        -7.5969
   8   0.0000      -0.094197        -2.5632
   9   0.0000      -0.002260        -0.0615
  10   0.0000       0.025143         0.6842
  11   0.0000       0.026155         0.7117
  12   0.0000       0.034120         0.9284

MULLIKEN ATOMIC CHARGES
-----------------------
   0 C :   -0.306392
   1 B :    0.160027
   2 H :    0.061299
   3 H :    0.076640
   4 H :    0.076640
   5 H :   -0.034106
   6 H :   -0.034106
Sum of atomic charges:    0.0000000

LOEWDIN ATOMIC CHARGES
----------------------
   0 C :    0.300293
   1 B :    0.133700
   2 H :   -0.075723
   3 H :   -0.098907
   4 H :   -0.098907
   5 H :   -0.080228
   6 H :   -0.080228

  Mayer bond orders larger than 0.100000
B(  0-C ,  1-B ) :   1.0258 B(  0-C ,  2-H ) :   0.9236 B(  0-C ,  3-H ) :   0.9760
B(  0-C ,  4-H ) :   0.9760 B(  1-B ,  5-H ) :   0.9927 B(  1-B ,  6-H ) :   0.9927

FINAL SINGLE POINT ENERGY       -65.260799052618

DIPOLE MOMENT
-------------
                                X             Y             Z
Electronic contribution:     -0.19811       0.73578      -0.00000
Nuclear contribution   :      0.24617      -1.03742       0.00000
                        -----------------------------------------
Total Dipole Moment    :      0.04806      -0.30164       0.00000
                        -----------------------------------------
Magnitude (a.u.)       :      0.30544
Magnitude (Debye)      :      0.77637

Rotational constants in cm-1:     3.228710     0.723532     0.660823
Rotational constants in MHz : 96794.286037 21690.947830 19810.964189

                             ****ORCA TERMINATED NORMALLY****
TOTAL RUN TIME: 0 days 0 hours 0 minutes 21 seconds 764 msec
