                         Program Version 4.2.1 -  RELEASE  -
|  1> ! LDA cc-pv5z nori grid5 finalgrid6 verytightscf
|  2> %Pal NProcs 18 End
|  3>
|  4> *xyz 0 1
|  5> C -0.0190572749 -0.6845195756 -0.0000000839
|  6> B -0.0207972952 0.8729523951 -0.0000000656
|  7> H 1.0512614815 -0.9395660726 0.0000010826
|  8> H -0.4362896177 -1.1431007759 0.8927422542
|  9> H -0.4362878975 -1.1431009662 -0.8927431359
| 10> H 0.0151838060 1.4835176231 -1.0228906497
| 11> H 0.0151867978 1.4835173722 1.0228905983
| 12> **                         ****END OF INPUT****

CARTESIAN COORDINATES (ANGSTROEM)
---------------------------------
  C     -0.019057   -0.684520   -0.000000
  B     -0.020797    0.872952   -0.000000
  H      1.051261   -0.939566    0.000001
  H     -0.436290   -1.143101    0.892742
  H     -0.436288   -1.143101   -0.892743
  H      0.015184    1.483518   -1.022891
  H      0.015187    1.483517    1.022891

 Total Charge           Charge          ....    0
 Multiplicity           Mult            ....    1
 Number of Electrons    NEL             ....   16
 Basis Dimension        Dim             ....  457

ORBITAL ENERGIES
----------------

  NO   OCC          E(Eh)            E(eV)
   0   2.0000      -9.761957      -265.6364
   1   2.0000      -6.431632      -175.0136
   2   2.0000      -0.636938       -17.3320
   3   2.0000      -0.431850       -11.7512
   4   2.0000      -0.375608       -10.2208
   5   2.0000      -0.365312        -9.9406
   6   2.0000      -0.297506        -8.0955
   7   2.0000      -0.279178        -7.5968
   8   0.0000      -0.094148        -2.5619
   9   0.0000       0.005931         0.1614
  10   0.0000       0.042406         1.1539
  11   0.0000       0.046349         1.2612
  12   0.0000       0.048741         1.3263

MULLIKEN ATOMIC CHARGES
-----------------------
   0 C :   -0.370332
   1 B :    0.380506
   2 H :    0.104985
   3 H :    0.085500
   4 H :    0.085500
   5 H :   -0.143080
   6 H :   -0.143080
Sum of atomic charges:    0.0000000

LOEWDIN ATOMIC CHARGES
----------------------
   0 C :    0.538530
   1 B :   -0.017088
   2 H :   -0.095341
   3 H :   -0.120957
   4 H :   -0.120957
   5 H :   -0.092093
   6 H :   -0.092093

  Mayer bond orders larger than 0.100000
B(  0-C ,  1-B ) :   1.0736 B(  0-C ,  2-H ) :   0.9254 B(  0-C ,  3-H ) :   0.9803
B(  0-C ,  4-H ) :   0.9803 B(  1-B ,  5-H ) :   0.9896 B(  1-B ,  6-H ) :   0.9896

FINAL SINGLE POINT ENERGY       -65.260613300691

DIPOLE MOMENT
-------------
                                X             Y             Z
Electronic contribution:     -0.19829       0.73544      -0.00000
Nuclear contribution   :      0.24617      -1.03742       0.00000
                        -----------------------------------------
Total Dipole Moment    :      0.04788      -0.30198       0.00000
                        -----------------------------------------
Magnitude (a.u.)       :      0.30575
Magnitude (Debye)      :      0.77715

Rotational constants in cm-1:     3.228710     0.723532     0.660823
Rotational constants in MHz : 96794.286037 21690.947830 19810.964189

                             ****ORCA TERMINATED NORMALLY****
TOTAL RUN TIME: 0 days 0 hours 2 minutes 12 seconds 666 msec
