                         Program Version 4.2.1 -  RELEASE  -
|  1> ! LDA cc-pcvqz nori grid5 finalgrid6 verytightscf
|  2> %Pal NProcs 18 End
|  3>
|  4> *xyz 0 1
|  5> C -0.0190572749 -0.6845195756 -0.0000000839
|  6> B -0.0207972952 0.8729523951 -0.0000000656
|  7> H 1.0512614815 -0.9395660726 0.0000010826
|  8> H -0.4362896177 -1.1431007759 0.8927422542
|  9> H -0.4362878975 -1.1431009662 -0.8927431359
| 10> H 0.0151838060 1.4835176231 -1.0228906497
| 11> H 0.0151867978 1.4835173722 1.0228905983
| 12> **                         ****END OF INPUT****

CARTESIAN COORDINATES (ANGSTROEM)
---------------------------------
  C     -0.019057   -0.684520   -0.000000
  B     -0.020797    0.872952   -0.000000
  H      1.051261   -0.939566    0.000001
  H     -0.436290   -1.143101    0.892742
  H     -0.436288   -1.143101   -0.892743
  H      0.015184    1.483518   -1.022891
  H      0.015187    1.483517    1.022891

 Total Charge           Charge          ....    0
 Multiplicity           Mult            ....    1
 Number of Electrons    NEL             ....   16
 Basis Dimension        Dim             ....  318

ORBITAL ENERGIES
----------------

  NO   OCC          E(Eh)            E(eV)
   0   2.0000      -9.762597      -265.6538
   1   2.0000      -6.432085      -175.0259
   2   2.0000      -0.636905       -17.3311
   3   2.0000      -0.431793       -11.7497
   4   2.0000      -0.375508       -10.2181
   5   2.0000      -0.365215        -9.9380
   6   2.0000      -0.297404        -8.0928
   7   2.0000      -0.279074        -7.5940
   8   0.0000      -0.093899        -2.5551
   9   0.0000       0.015624         0.4252
  10   0.0000       0.061405         1.6709
  11   0.0000       0.062153         1.6913
  12   0.0000       0.075292         2.0488

MULLIKEN ATOMIC CHARGES
-----------------------
   0 C :   -0.477229
   1 B :    0.043695
   2 H :    0.146150
   3 H :    0.146858
   4 H :    0.146858
   5 H :   -0.003166
   6 H :   -0.003166
Sum of atomic charges:    0.0000000

LOEWDIN ATOMIC CHARGES
----------------------
   0 C :    0.373914
   1 B :   -0.070206
   2 H :   -0.040925
   3 H :   -0.069844
   4 H :   -0.069844
   5 H :   -0.061547
   6 H :   -0.061547

  Mayer bond orders larger than 0.100000
B(  0-C ,  1-B ) :   1.0806 B(  0-C ,  2-H ) :   0.9044 B(  0-C ,  3-H ) :   0.9544
B(  0-C ,  4-H ) :   0.9544 B(  1-B ,  5-H ) :   0.9835 B(  1-B ,  6-H ) :   0.9835

FINAL SINGLE POINT ENERGY       -65.259876759499

DIPOLE MOMENT
-------------
                                X             Y             Z
Electronic contribution:     -0.19735       0.73266      -0.00000
Nuclear contribution   :      0.24617      -1.03742       0.00000
                        -----------------------------------------
Total Dipole Moment    :      0.04882      -0.30476       0.00000
                        -----------------------------------------
Magnitude (a.u.)       :      0.30864
Magnitude (Debye)      :      0.78450

Rotational constants in cm-1:     3.228710     0.723532     0.660823
Rotational constants in MHz : 96794.286037 21690.947830 19810.964189

                             ****ORCA TERMINATED NORMALLY****
TOTAL RUN TIME: 0 days 0 hours 0 minutes 23 seconds 527 msec
