                         Program Version 4.2.1 -  RELEASE  -
|  1> ! LDA def2-svp nori grid5 finalgrid6 verytightscf
|  2> %Pal NProcs 18 End
|  3>
|  4> *xyz 0 1
|  5> C -0.0190572749 -0.6845195756 -0.0000000839
|  6> B -0.0207972952 0.8729523951 -0.0000000656
|  7> H 1.0512614815 -0.9395660726 0.0000010826
|  8> H -0.4362896177 -1.1431007759 0.8927422542
|  9> H -0.4362878975 -1.1431009662 -0.8927431359
| 10> H 0.0151838060 1.4835176231 -1.0228906497
| 11> H 0.0151867978 1.4835173722 1.0228905983
| 12> **                         ****END OF INPUT****

CARTESIAN COORDINATES (ANGSTROEM)
---------------------------------
  C     -0.019057   -0.684520   -0.000000
  B     -0.020797    0.872952   -0.000000
  H      1.051261   -0.939566    0.000001
  H     -0.436290   -1.143101    0.892742
  H     -0.436288   -1.143101   -0.892743
  H      0.015184    1.483518   -1.022891
  H      0.015187    1.483517    1.022891

 Total Charge           Charge          ....    0
 Multiplicity           Mult            ....    1
 Number of Electrons    NEL             ....   16
 Basis Dimension        Dim             ....   53

ORBITAL ENERGIES
----------------

  NO   OCC          E(Eh)            E(eV)
   0   2.0000      -9.767247      -265.7803
   1   2.0000      -6.431168      -175.0010
   2   2.0000      -0.627380       -17.0719
   3   2.0000      -0.424143       -11.5415
   4   2.0000      -0.371462       -10.1080
   5   2.0000      -0.361806        -9.8452
   6   2.0000      -0.293346        -7.9824
   7   2.0000      -0.274251        -7.4628
   8   0.0000      -0.089436        -2.4337
   9   0.0000       0.048840         1.3290
  10   0.0000       0.094290         2.5658
  11   0.0000       0.099281         2.7016
  12   0.0000       0.146485         3.9861

MULLIKEN ATOMIC CHARGES
-----------------------
   0 C :   -0.195104
   1 B :   -0.100354
   2 H :    0.092649
   3 H :    0.078747
   4 H :    0.078747
   5 H :    0.022657
   6 H :    0.022657
Sum of atomic charges:    0.0000000

LOEWDIN ATOMIC CHARGES
----------------------
   0 C :   -0.177889
   1 B :    0.006252
   2 H :    0.094240
   3 H :    0.057449
   4 H :    0.057449
   5 H :   -0.018751
   6 H :   -0.018751

  Mayer bond orders larger than 0.100000
B(  0-C ,  1-B ) :   1.1724 B(  0-C ,  2-H ) :   0.9086 B(  0-C ,  3-H ) :   0.9551
B(  0-C ,  4-H ) :   0.9551 B(  1-B ,  5-H ) :   0.9725 B(  1-B ,  6-H ) :   0.9725

FINAL SINGLE POINT ENERGY       -65.176979575468

DIPOLE MOMENT
-------------
                                X             Y             Z
Electronic contribution:     -0.17577       0.69365      -0.00000
Nuclear contribution   :      0.24617      -1.03742       0.00000
                        -----------------------------------------
Total Dipole Moment    :      0.07040      -0.34377       0.00000
                        -----------------------------------------
Magnitude (a.u.)       :      0.35090
Magnitude (Debye)      :      0.89192

Rotational constants in cm-1:     3.228710     0.723532     0.660823
Rotational constants in MHz : 96794.286037 21690.947830 19810.964189

                             ****ORCA TERMINATED NORMALLY****
TOTAL RUN TIME: 0 days 0 hours 0 minutes 4 seconds 117 msec
