                         Program Version 4.2.1 -  RELEASE  -
|  1> ! LDA cc-pvqz nori grid5 finalgrid6 verytightscf
|  2> %Pal NProcs 18 End
|  3>
|  4> *xyz 0 1
|  5> C -0.0190572749 -0.6845195756 -0.0000000839
|  6> B -0.0207972952 0.8729523951 -0.0000000656
|  7> H 1.0512614815 -0.9395660726 0.0000010826
|  8> H -0.4362896177 -1.1431007759 0.8927422542
|  9> H -0.4362878975 -1.1431009662 -0.8927431359
| 10> H 0.0151838060 1.4835176231 -1.0228906497
| 11> H 0.0151867978 1.4835173722 1.0228905983
| 12> **                         ****END OF INPUT****

CARTESIAN COORDINATES (ANGSTROEM)
---------------------------------
  C     -0.019057   -0.684520   -0.000000
  B     -0.020797    0.872952   -0.000000
  H      1.051261   -0.939566    0.000001
  H     -0.436290   -1.143101    0.892742
  H     -0.436288   -1.143101   -0.892743
  H      0.015184    1.483518   -1.022891
  H      0.015187    1.483517    1.022891

 Total Charge           Charge          ....    0
 Multiplicity           Mult            ....    1
 Number of Electrons    NEL             ....   16
 Basis Dimension        Dim             ....  260

ORBITAL ENERGIES
----------------

  NO   OCC          E(Eh)            E(eV)
   0   2.0000      -9.760574      -265.5987
   1   2.0000      -6.430234      -174.9756
   2   2.0000      -0.636937       -17.3319
   3   2.0000      -0.431810       -11.7502
   4   2.0000      -0.375514       -10.2182
   5   2.0000      -0.365224        -9.9382
   6   2.0000      -0.297403        -8.0927
   7   2.0000      -0.279069        -7.5938
   8   0.0000      -0.093881        -2.5546
   9   0.0000       0.015695         0.4271
  10   0.0000       0.061455         1.6723
  11   0.0000       0.062175         1.6919
  12   0.0000       0.075313         2.0494

MULLIKEN ATOMIC CHARGES
-----------------------
   0 C :   -0.444515
   1 B :    0.146881
   2 H :    0.122911
   3 H :    0.121433
   4 H :    0.121433
   5 H :   -0.034071
   6 H :   -0.034071
Sum of atomic charges:    0.0000000

LOEWDIN ATOMIC CHARGES
----------------------
   0 C :    0.374667
   1 B :   -0.068354
   2 H :   -0.041449
   3 H :   -0.070453
   4 H :   -0.070453
   5 H :   -0.061979
   6 H :   -0.061979

  Mayer bond orders larger than 0.100000
B(  0-C ,  1-B ) :   1.0409 B(  0-C ,  2-H ) :   0.9070 B(  0-C ,  3-H ) :   0.9582
B(  0-C ,  4-H ) :   0.9582 B(  1-B ,  5-H ) :   0.9520 B(  1-B ,  6-H ) :   0.9520

FINAL SINGLE POINT ENERGY       -65.258700952160

DIPOLE MOMENT
-------------
                                X             Y             Z
Electronic contribution:     -0.19732       0.73285      -0.00000
Nuclear contribution   :      0.24617      -1.03742       0.00000
                        -----------------------------------------
Total Dipole Moment    :      0.04885      -0.30457       0.00000
                        -----------------------------------------
Magnitude (a.u.)       :      0.30846
Magnitude (Debye)      :      0.78406

Rotational constants in cm-1:     3.228710     0.723532     0.660823
Rotational constants in MHz : 96794.286037 21690.947830 19810.964189

                             ****ORCA TERMINATED NORMALLY****
TOTAL RUN TIME: 0 days 0 hours 0 minutes 15 seconds 578 msec
