                         Program Version 4.2.1 -  RELEASE  -
|  1> ! LDA cc-pvdz nori grid5 finalgrid6 verytightscf
|  2> %Pal NProcs 18 End
|  3>
|  4> *xyz 0 1
|  5> C -0.0190572749 -0.6845195756 -0.0000000839
|  6> B -0.0207972952 0.8729523951 -0.0000000656
|  7> H 1.0512614815 -0.9395660726 0.0000010826
|  8> H -0.4362896177 -1.1431007759 0.8927422542
|  9> H -0.4362878975 -1.1431009662 -0.8927431359
| 10> H 0.0151838060 1.4835176231 -1.0228906497
| 11> H 0.0151867978 1.4835173722 1.0228905983
| 12> **                         ****END OF INPUT****

CARTESIAN COORDINATES (ANGSTROEM)
---------------------------------
  C     -0.019057   -0.684520   -0.000000
  B     -0.020797    0.872952   -0.000000
  H      1.051261   -0.939566    0.000001
  H     -0.436290   -1.143101    0.892742
  H     -0.436288   -1.143101   -0.892743
  H      0.015184    1.483518   -1.022891
  H      0.015187    1.483517    1.022891

 Total Charge           Charge          ....    0
 Multiplicity           Mult            ....    1
 Number of Electrons    NEL             ....   16
 Basis Dimension        Dim             ....   53

ORBITAL ENERGIES
----------------

  NO   OCC          E(Eh)            E(eV)
   0   2.0000      -9.761087      -265.6127
   1   2.0000      -6.425523      -174.8474
   2   2.0000      -0.633684       -17.2434
   3   2.0000      -0.427860       -11.6427
   4   2.0000      -0.370250       -10.0750
   5   2.0000      -0.360239        -9.8026
   6   2.0000      -0.291596        -7.9347
   7   2.0000      -0.273185        -7.4338
   8   0.0000      -0.088231        -2.4009
   9   0.0000       0.054010         1.4697
  10   0.0000       0.094385         2.5683
  11   0.0000       0.100118         2.7243
  12   0.0000       0.129548         3.5252

MULLIKEN ATOMIC CHARGES
-----------------------
   0 C :   -0.144549
   1 B :   -0.113726
   2 H :    0.093483
   3 H :    0.069677
   4 H :    0.069677
   5 H :    0.012719
   6 H :    0.012719
Sum of atomic charges:   -0.0000000

LOEWDIN ATOMIC CHARGES
----------------------
   0 C :   -0.138511
   1 B :   -0.050345
   2 H :    0.097264
   3 H :    0.059021
   4 H :    0.059021
   5 H :   -0.013226
   6 H :   -0.013226

  Mayer bond orders larger than 0.100000
B(  0-C ,  1-B ) :   1.2236 B(  0-C ,  2-H ) :   0.8984 B(  0-C ,  3-H ) :   0.9472
B(  0-C ,  4-H ) :   0.9472 B(  1-B ,  5-H ) :   0.9673 B(  1-B ,  6-H ) :   0.9673

FINAL SINGLE POINT ENERGY       -65.221733335801

DIPOLE MOMENT
-------------
                                X             Y             Z
Electronic contribution:     -0.18103       0.69558      -0.00000
Nuclear contribution   :      0.24617      -1.03742       0.00000
                        -----------------------------------------
Total Dipole Moment    :      0.06514      -0.34184       0.00000
                        -----------------------------------------
Magnitude (a.u.)       :      0.34799
Magnitude (Debye)      :      0.88452

Rotational constants in cm-1:     3.228710     0.723532     0.660823
Rotational constants in MHz : 96794.286037 21690.947830 19810.964189

                             ****ORCA TERMINATED NORMALLY****
TOTAL RUN TIME: 0 days 0 hours 0 minutes 4 seconds 61 msec
