                         Program Version 4.2.1 -  RELEASE  -
|  1> ! LDA pc-3 nori grid5 finalgrid6 verytightscf
|  2> %Pal NProcs 18 End
|  3>
|  4> *xyz 0 1
|  5> C 0.0000 0.0000 0.0000
|  6> O 0.0000 0.0000 1.1621
|  7> O 0.0000 0.0000 -1.1621
|  8> **                         ****END OF INPUT****

CARTESIAN COORDINATES (ANGSTROEM)
---------------------------------
  C      0.000000    0.000000    0.000000
  O      0.000000    0.000000    1.162100
  O      0.000000    0.000000   -1.162100

 Total Charge           Charge          ....    0
 Multiplicity           Mult            ....    1
 Number of Electrons    NEL             ....   22
 Basis Dimension        Dim             ....  192

ORBITAL ENERGIES
----------------

  NO   OCC          E(Eh)            E(eV)
   0   2.0000     -18.691869      -508.6316
   1   2.0000     -18.691869      -508.6316
   2   2.0000      -9.964348      -271.1437
   3   2.0000      -1.070431       -29.1279
   4   2.0000      -1.035368       -28.1738
   5   2.0000      -0.508381       -13.8337
   6   2.0000      -0.478328       -13.0160
   7   2.0000      -0.478328       -13.0160
   8   2.0000      -0.472193       -12.8490
   9   2.0000      -0.342554        -9.3214
  10   2.0000      -0.342554        -9.3214
  11   0.0000      -0.025092        -0.6828
  12   0.0000      -0.023678        -0.6443
  13   0.0000      -0.023678        -0.6443
  14   0.0000       0.060679         1.6512
  15   0.0000       0.060679         1.6512

MULLIKEN ATOMIC CHARGES
-----------------------
   0 C :    0.589146
   1 O :   -0.294573
   2 O :   -0.294573
Sum of atomic charges:    0.0000000

LOEWDIN ATOMIC CHARGES
----------------------
   0 C :   -0.630952
   1 O :    0.315476
   2 O :    0.315476

  Mayer bond orders larger than 0.100000
B(  0-C ,  1-O ) :   2.1184 B(  0-C ,  2-O ) :   2.1184 B(  1-O ,  2-O ) :   0.2300

FINAL SINGLE POINT ENERGY      -187.286559615651

DIPOLE MOMENT
-------------
                                X             Y             Z
Electronic contribution:     -0.00000      -0.00000       0.00000
Nuclear contribution   :      0.00000       0.00000       0.00000
                        -----------------------------------------
Total Dipole Moment    :     -0.00000      -0.00000       0.00000
                        -----------------------------------------
Magnitude (a.u.)       :      0.00000
Magnitude (Debye)      :      0.00000

Rotational constants in cm-1:     0.000000     0.390110     0.390110
Rotational constants in MHz :     0.000000 11695.203081 11695.203081

                             ****ORCA TERMINATED NORMALLY****
TOTAL RUN TIME: 0 days 0 hours 0 minutes 10 seconds 390 msec
