                         Program Version 4.2.1 -  RELEASE  -
|  1> ! LDA pc-4 nori grid5 finalgrid6 verytightscf
|  2> %Pal NProcs 18 End
|  3>
|  4> *xyz 0 1
|  5> C 0.0000 0.0000 0.0000
|  6> O 0.0000 0.0000 1.1621
|  7> O 0.0000 0.0000 -1.1621
|  8> **                         ****END OF INPUT****

CARTESIAN COORDINATES (ANGSTROEM)
---------------------------------
  C      0.000000    0.000000    0.000000
  O      0.000000    0.000000    1.162100
  O      0.000000    0.000000   -1.162100

 Total Charge           Charge          ....    0
 Multiplicity           Mult            ....    1
 Number of Electrons    NEL             ....   22
 Basis Dimension        Dim             ....  327

ORBITAL ENERGIES
----------------

  NO   OCC          E(Eh)            E(eV)
   0   2.0000     -18.691689      -508.6267
   1   2.0000     -18.691689      -508.6267
   2   2.0000      -9.964205      -271.1398
   3   2.0000      -1.070388       -29.1267
   4   2.0000      -1.035325       -28.1726
   5   2.0000      -0.508385       -13.8338
   6   2.0000      -0.478316       -13.0156
   7   2.0000      -0.478316       -13.0156
   8   2.0000      -0.472196       -12.8491
   9   2.0000      -0.342546        -9.3212
  10   2.0000      -0.342546        -9.3212
  11   0.0000      -0.032508        -0.8846
  12   0.0000      -0.023806        -0.6478
  13   0.0000      -0.023806        -0.6478
  14   0.0000       0.044093         1.1998
  15   0.0000       0.044093         1.1998

MULLIKEN ATOMIC CHARGES
-----------------------
   0 C :    0.769346
   1 O :   -0.384672
   2 O :   -0.384674
Sum of atomic charges:   -0.0000000

LOEWDIN ATOMIC CHARGES
----------------------
   0 C :   -0.874566
   1 O :    0.437283
   2 O :    0.437283

  Mayer bond orders larger than 0.100000
B(  0-C ,  1-O ) :   2.0998 B(  0-C ,  2-O ) :   2.0998 B(  1-O ,  2-O ) :   0.1897

FINAL SINGLE POINT ENERGY      -187.286899895860

DIPOLE MOMENT
-------------
                                X             Y             Z
Electronic contribution:     -0.00000      -0.00000      -0.00000
Nuclear contribution   :      0.00000       0.00000       0.00000
                        -----------------------------------------
Total Dipole Moment    :     -0.00000      -0.00000      -0.00000
                        -----------------------------------------
Magnitude (a.u.)       :      0.00000
Magnitude (Debye)      :      0.00000

Rotational constants in cm-1:     0.000000     0.390110     0.390110
Rotational constants in MHz :     0.000000 11695.203081 11695.203081

                             ****ORCA TERMINATED NORMALLY****
TOTAL RUN TIME: 0 days 0 hours 0 minutes 57 seconds 786 msec
