                         Program Version 4.2.1 -  RELEASE  -
|  1> ! LDA cc-pv5z nori grid5 finalgrid6 verytightscf
|  2> %Pal NProcs 18 End
|  3>
|  4> *xyz 0 1
|  5> C 0.0000 0.0000 0.0000
|  6> O 0.0000 0.0000 1.1621
|  7> O 0.0000 0.0000 -1.1621
|  8> **                         ****END OF INPUT****

CARTESIAN COORDINATES (ANGSTROEM)
---------------------------------
  C      0.000000    0.000000    0.000000
  O      0.000000    0.000000    1.162100
  O      0.000000    0.000000   -1.162100

 Total Charge           Charge          ....    0
 Multiplicity           Mult            ....    1
 Number of Electrons    NEL             ....   22
 Basis Dimension        Dim             ....  273

ORBITAL ENERGIES
----------------

  NO   OCC          E(Eh)            E(eV)
   0   2.0000     -18.690470      -508.5935
   1   2.0000     -18.690468      -508.5935
   2   2.0000      -9.963370      -271.1171
   3   2.0000      -1.070167       -29.1207
   4   2.0000      -1.035102       -28.1665
   5   2.0000      -0.508134       -13.8270
   6   2.0000      -0.478097       -13.0097
   7   2.0000      -0.478097       -13.0097
   8   2.0000      -0.471947       -12.8423
   9   2.0000      -0.342290        -9.3142
  10   2.0000      -0.342290        -9.3142
  11   0.0000      -0.023132        -0.6295
  12   0.0000      -0.023132        -0.6295
  13   0.0000      -0.020573        -0.5598
  14   0.0000       0.094703         2.5770
  15   0.0000       0.094703         2.5770

MULLIKEN ATOMIC CHARGES
-----------------------
   0 C :    0.574382
   1 O :   -0.287191
   2 O :   -0.287191
Sum of atomic charges:   -0.0000000

LOEWDIN ATOMIC CHARGES
----------------------
   0 C :   -1.126877
   1 O :    0.563439
   2 O :    0.563439

  Mayer bond orders larger than 0.100000
B(  0-C ,  1-O ) :   2.2114 B(  0-C ,  2-O ) :   2.2114 B(  1-O ,  2-O ) :   0.2505

FINAL SINGLE POINT ENERGY      -187.285899928282

DIPOLE MOMENT
-------------
                                X             Y             Z
Electronic contribution:      0.00000      -0.00000       0.00000
Nuclear contribution   :      0.00000       0.00000       0.00000
                        -----------------------------------------
Total Dipole Moment    :      0.00000      -0.00000       0.00000
                        -----------------------------------------
Magnitude (a.u.)       :      0.00000
Magnitude (Debye)      :      0.00000

Rotational constants in cm-1:     0.000000     0.390110     0.390110
Rotational constants in MHz :     0.000000 11695.203081 11695.203081

                             ****ORCA TERMINATED NORMALLY****
TOTAL RUN TIME: 0 days 0 hours 0 minutes 38 seconds 230 msec
