                         Program Version 4.2.1 -  RELEASE  -
|  1> ! LDA zora-def2-qzvpp nori grid5 finalgrid6 verytightscf
|  2> %Pal NProcs 18 End
|  3>
|  4> *xyz 0 1
|  5> C 0.0000 0.0000 0.0000
|  6> O 0.0000 0.0000 1.1621
|  7> O 0.0000 0.0000 -1.1621
|  8> **                         ****END OF INPUT****

CARTESIAN COORDINATES (ANGSTROEM)
---------------------------------
  C      0.000000    0.000000    0.000000
  O      0.000000    0.000000    1.162100
  O      0.000000    0.000000   -1.162100

 Total Charge           Charge          ....    0
 Multiplicity           Mult            ....    1
 Number of Electrons    NEL             ....   22
 Basis Dimension        Dim             ....  174

ORBITAL ENERGIES
----------------

  NO   OCC          E(Eh)            E(eV)
   0   2.0000     -18.693295      -508.6704
   1   2.0000     -18.693295      -508.6704
   2   2.0000      -9.964726      -271.1540
   3   2.0000      -1.070153       -29.1204
   4   2.0000      -1.035066       -28.1656
   5   2.0000      -0.507955       -13.8222
   6   2.0000      -0.477964       -13.0061
   7   2.0000      -0.477964       -13.0061
   8   2.0000      -0.471763       -12.8373
   9   2.0000      -0.342132        -9.3099
  10   2.0000      -0.342132        -9.3099
  11   0.0000      -0.022941        -0.6243
  12   0.0000      -0.022941        -0.6243
  13   0.0000      -0.016420        -0.4468
  14   0.0000       0.099873         2.7177
  15   0.0000       0.099873         2.7177

MULLIKEN ATOMIC CHARGES
-----------------------
   0 C :    0.352374
   1 O :   -0.176187
   2 O :   -0.176187
Sum of atomic charges:   -0.0000000

LOEWDIN ATOMIC CHARGES
----------------------
   0 C :   -0.804700
   1 O :    0.402350
   2 O :    0.402350

  Mayer bond orders larger than 0.100000
B(  0-C ,  1-O ) :   2.2186 B(  0-C ,  2-O ) :   2.2186 B(  1-O ,  2-O ) :   0.2228

FINAL SINGLE POINT ENERGY      -187.284923672028

DIPOLE MOMENT
-------------
                                X             Y             Z
Electronic contribution:      0.00000       0.00000       0.00000
Nuclear contribution   :      0.00000       0.00000       0.00000
                        -----------------------------------------
Total Dipole Moment    :      0.00000       0.00000       0.00000
                        -----------------------------------------
Magnitude (a.u.)       :      0.00000
Magnitude (Debye)      :      0.00000

Rotational constants in cm-1:     0.000000     0.390110     0.390110
Rotational constants in MHz :     0.000000 11695.203081 11695.203081

                             ****ORCA TERMINATED NORMALLY****
TOTAL RUN TIME: 0 days 0 hours 0 minutes 8 seconds 8 msec
