                         Program Version 4.2.1 -  RELEASE  -
|  1> ! LDA cc-pvtz nori grid5 finalgrid6 verytightscf
|  2> %Pal NProcs 18 End
|  3>
|  4> *xyz 0 1
|  5> C 0.0000 0.0000 0.0000
|  6> O 0.0000 0.0000 1.1621
|  7> O 0.0000 0.0000 -1.1621
|  8> **                         ****END OF INPUT****

CARTESIAN COORDINATES (ANGSTROEM)
---------------------------------
  C      0.000000    0.000000    0.000000
  O      0.000000    0.000000    1.162100
  O      0.000000    0.000000   -1.162100

 Total Charge           Charge          ....    0
 Multiplicity           Mult            ....    1
 Number of Electrons    NEL             ....   22
 Basis Dimension        Dim             ....   90

ORBITAL ENERGIES
----------------

  NO   OCC          E(Eh)            E(eV)
   0   2.0000     -18.689676      -508.5719
   1   2.0000     -18.689675      -508.5719
   2   2.0000      -9.960934      -271.0508
   3   2.0000      -1.067542       -29.0493
   4   2.0000      -1.032510       -28.0960
   5   2.0000      -0.504675       -13.7329
   6   2.0000      -0.474621       -12.9151
   7   2.0000      -0.474621       -12.9151
   8   2.0000      -0.468281       -12.7426
   9   2.0000      -0.338278        -9.2050
  10   2.0000      -0.338278        -9.2050
  11   0.0000      -0.017335        -0.4717
  12   0.0000      -0.017335        -0.4717
  13   0.0000       0.006194         0.1685
  14   0.0000       0.204492         5.5645
  15   0.0000       0.229197         6.2368

MULLIKEN ATOMIC CHARGES
-----------------------
   0 C :    0.290701
   1 O :   -0.145351
   2 O :   -0.145351
Sum of atomic charges:    0.0000000

LOEWDIN ATOMIC CHARGES
----------------------
   0 C :   -0.585749
   1 O :    0.292875
   2 O :    0.292875

  Mayer bond orders larger than 0.100000
B(  0-C ,  1-O ) :   2.2459 B(  0-C ,  2-O ) :   2.2459 B(  1-O ,  2-O ) :   0.2325

FINAL SINGLE POINT ENERGY      -187.265300478725

DIPOLE MOMENT
-------------
                                X             Y             Z
Electronic contribution:      0.00000       0.00000       0.00000
Nuclear contribution   :      0.00000       0.00000       0.00000
                        -----------------------------------------
Total Dipole Moment    :      0.00000       0.00000       0.00000
                        -----------------------------------------
Magnitude (a.u.)       :      0.00000
Magnitude (Debye)      :      0.00000

Rotational constants in cm-1:     0.000000     0.390110     0.390110
Rotational constants in MHz :     0.000000 11695.203081 11695.203081

                             ****ORCA TERMINATED NORMALLY****
TOTAL RUN TIME: 0 days 0 hours 0 minutes 4 seconds 429 msec
