                         Program Version 4.2.1 -  RELEASE  -
|  1> ! LDA cc-pcvqz nori grid5 finalgrid6 verytightscf
|  2> %Pal NProcs 18 End
|  3>
|  4> *xyz 0 1
|  5> C 0.0000 0.0000 0.0000
|  6> O 0.0000 0.0000 1.1621
|  7> O 0.0000 0.0000 -1.1621
|  8> **                         ****END OF INPUT****

CARTESIAN COORDINATES (ANGSTROEM)
---------------------------------
  C      0.000000    0.000000    0.000000
  O      0.000000    0.000000    1.162100
  O      0.000000    0.000000   -1.162100

 Total Charge           Charge          ....    0
 Multiplicity           Mult            ....    1
 Number of Electrons    NEL             ....   22
 Basis Dimension        Dim             ....  252

ORBITAL ENERGIES
----------------

  NO   OCC          E(Eh)            E(eV)
   0   2.0000     -18.690628      -508.5979
   1   2.0000     -18.690628      -508.5978
   2   2.0000      -9.963036      -271.1080
   3   2.0000      -1.069193       -29.0942
   4   2.0000      -1.034094       -28.1391
   5   2.0000      -0.507128       -13.7996
   6   2.0000      -0.477031       -12.9807
   7   2.0000      -0.477031       -12.9807
   8   2.0000      -0.470879       -12.8133
   9   2.0000      -0.341102        -9.2818
  10   2.0000      -0.341102        -9.2818
  11   0.0000      -0.021098        -0.5741
  12   0.0000      -0.021098        -0.5741
  13   0.0000      -0.011340        -0.3086
  14   0.0000       0.150670         4.0999
  15   0.0000       0.161386         4.3915

MULLIKEN ATOMIC CHARGES
-----------------------
   0 C :    0.417027
   1 O :   -0.208514
   2 O :   -0.208514
Sum of atomic charges:   -0.0000000

LOEWDIN ATOMIC CHARGES
----------------------
   0 C :   -0.920054
   1 O :    0.460027
   2 O :    0.460027

  Mayer bond orders larger than 0.100000
B(  0-C ,  1-O ) :   2.2589 B(  0-C ,  2-O ) :   2.2589 B(  1-O ,  2-O ) :   0.2410

FINAL SINGLE POINT ENERGY      -187.283286163910

DIPOLE MOMENT
-------------
                                X             Y             Z
Electronic contribution:     -0.00000      -0.00000      -0.00000
Nuclear contribution   :      0.00000       0.00000       0.00000
                        -----------------------------------------
Total Dipole Moment    :     -0.00000      -0.00000      -0.00000
                        -----------------------------------------
Magnitude (a.u.)       :      0.00000
Magnitude (Debye)      :      0.00000

Rotational constants in cm-1:     0.000000     0.390110     0.390110
Rotational constants in MHz :     0.000000 11695.203081 11695.203081

                             ****ORCA TERMINATED NORMALLY****
TOTAL RUN TIME: 0 days 0 hours 0 minutes 13 seconds 560 msec
