                         Program Version 4.2.1 -  RELEASE  -
|  1> ! LDA cc-pvqz nori grid5 finalgrid6 verytightscf
|  2> %Pal NProcs 18 End
|  3>
|  4> *xyz 0 1
|  5> C 0.0000 0.0000 0.0000
|  6> O 0.0000 0.0000 1.1621
|  7> O 0.0000 0.0000 -1.1621
|  8> **                         ****END OF INPUT****

CARTESIAN COORDINATES (ANGSTROEM)
---------------------------------
  C      0.000000    0.000000    0.000000
  O      0.000000    0.000000    1.162100
  O      0.000000    0.000000   -1.162100

 Total Charge           Charge          ....    0
 Multiplicity           Mult            ....    1
 Number of Electrons    NEL             ....   22
 Basis Dimension        Dim             ....  165

ORBITAL ENERGIES
----------------

  NO   OCC          E(Eh)            E(eV)
   0   2.0000     -18.687426      -508.5107
   1   2.0000     -18.687409      -508.5102
   2   2.0000      -9.960811      -271.0475
   3   2.0000      -1.069261       -29.0961
   4   2.0000      -1.034158       -28.1409
   5   2.0000      -0.507083       -13.7984
   6   2.0000      -0.477038       -12.9809
   7   2.0000      -0.477038       -12.9809
   8   2.0000      -0.470833       -12.8120
   9   2.0000      -0.341085        -9.2814
  10   2.0000      -0.341085        -9.2814
  11   0.0000      -0.021073        -0.5734
  12   0.0000      -0.021073        -0.5734
  13   0.0000      -0.011308        -0.3077
  14   0.0000       0.151183         4.1139
  15   0.0000       0.161715         4.4005

MULLIKEN ATOMIC CHARGES
-----------------------
   0 C :    0.456896
   1 O :   -0.228448
   2 O :   -0.228448
Sum of atomic charges:    0.0000000

LOEWDIN ATOMIC CHARGES
----------------------
   0 C :   -0.917804
   1 O :    0.458902
   2 O :    0.458902

  Mayer bond orders larger than 0.100000
B(  0-C ,  1-O ) :   2.2266 B(  0-C ,  2-O ) :   2.2266 B(  1-O ,  2-O ) :   0.2355

FINAL SINGLE POINT ENERGY      -187.280636616123

DIPOLE MOMENT
-------------
                                X             Y             Z
Electronic contribution:     -0.00000      -0.00000      -0.00000
Nuclear contribution   :      0.00000       0.00000       0.00000
                        -----------------------------------------
Total Dipole Moment    :     -0.00000      -0.00000      -0.00000
                        -----------------------------------------
Magnitude (a.u.)       :      0.00000
Magnitude (Debye)      :      0.00000

Rotational constants in cm-1:     0.000000     0.390110     0.390110
Rotational constants in MHz :     0.000000 11695.203081 11695.203081

                             ****ORCA TERMINATED NORMALLY****
TOTAL RUN TIME: 0 days 0 hours 0 minutes 7 seconds 923 msec
