                         Program Version 4.2.1 -  RELEASE  -
|  1> ! LDA cc-pvdz nori grid5 finalgrid6 verytightscf
|  2> %Pal NProcs 18 End
|  3>
|  4> *xyz 0 1
|  5> C 0.0000 0.0000 0.0000
|  6> O 0.0000 0.0000 1.1621
|  7> O 0.0000 0.0000 -1.1621
|  8> **                         ****END OF INPUT****

CARTESIAN COORDINATES (ANGSTROEM)
---------------------------------
  C      0.000000    0.000000    0.000000
  O      0.000000    0.000000    1.162100
  O      0.000000    0.000000   -1.162100

 Total Charge           Charge          ....    0
 Multiplicity           Mult            ....    1
 Number of Electrons    NEL             ....   22
 Basis Dimension        Dim             ....   42

ORBITAL ENERGIES
----------------

  NO   OCC          E(Eh)            E(eV)
   0   2.0000     -18.685901      -508.4692
   1   2.0000     -18.685893      -508.4690
   2   2.0000      -9.957617      -270.9605
   3   2.0000      -1.060131       -28.8476
   4   2.0000      -1.024390       -27.8751
   5   2.0000      -0.492958       -13.4141
   6   2.0000      -0.463449       -12.6111
   7   2.0000      -0.463449       -12.6111
   8   2.0000      -0.455772       -12.4022
   9   2.0000      -0.324543        -8.8313
  10   2.0000      -0.324543        -8.8313
  11   0.0000      -0.004926        -0.1340
  12   0.0000      -0.004926        -0.1340
  13   0.0000       0.045710         1.2438
  14   0.0000       0.316895         8.6231
  15   0.0000       0.376242        10.2381

MULLIKEN ATOMIC CHARGES
-----------------------
   0 C :    0.203930
   1 O :   -0.101965
   2 O :   -0.101965
Sum of atomic charges:   -0.0000000

LOEWDIN ATOMIC CHARGES
----------------------
   0 C :   -0.217360
   1 O :    0.108680
   2 O :    0.108680

  Mayer bond orders larger than 0.100000
B(  0-C ,  1-O ) :   2.2763 B(  0-C ,  2-O ) :   2.2763 B(  1-O ,  2-O ) :   0.2890

FINAL SINGLE POINT ENERGY      -187.194645240609

DIPOLE MOMENT
-------------
                                X             Y             Z
Electronic contribution:      0.00000      -0.00000       0.00000
Nuclear contribution   :      0.00000       0.00000       0.00000
                        -----------------------------------------
Total Dipole Moment    :      0.00000      -0.00000       0.00000
                        -----------------------------------------
Magnitude (a.u.)       :      0.00000
Magnitude (Debye)      :      0.00000

Rotational constants in cm-1:     0.000000     0.390110     0.390110
Rotational constants in MHz :     0.000000 11695.203081 11695.203081

                             ****ORCA TERMINATED NORMALLY****
TOTAL RUN TIME: 0 days 0 hours 0 minutes 3 seconds 747 msec
