                         Program Version 4.2.1 -  RELEASE  -
|  1> ! LDA cc-pcvdz nori grid5 finalgrid6 verytightscf
|  2> %Pal NProcs 18 End
|  3>
|  4> *xyz 0 1
|  5> C 0.0000 0.0000 0.0000
|  6> O 0.0000 0.0000 1.1621
|  7> O 0.0000 0.0000 -1.1621
|  8> **                         ****END OF INPUT****

CARTESIAN COORDINATES (ANGSTROEM)
---------------------------------
  C      0.000000    0.000000    0.000000
  O      0.000000    0.000000    1.162100
  O      0.000000    0.000000   -1.162100

 Total Charge           Charge          ....    0
 Multiplicity           Mult            ....    1
 Number of Electrons    NEL             ....   22
 Basis Dimension        Dim             ....   54

ORBITAL ENERGIES
----------------

  NO   OCC          E(Eh)            E(eV)
   0   2.0000     -18.695315      -508.7254
   1   2.0000     -18.695314      -508.7254
   2   2.0000      -9.965574      -271.1771
   3   2.0000      -1.060579       -28.8598
   4   2.0000      -1.024947       -27.8902
   5   2.0000      -0.493729       -13.4350
   6   2.0000      -0.463814       -12.6210
   7   2.0000      -0.463814       -12.6210
   8   2.0000      -0.456499       -12.4220
   9   2.0000      -0.325074        -8.8457
  10   2.0000      -0.325074        -8.8457
  11   0.0000      -0.005130        -0.1396
  12   0.0000      -0.005130        -0.1396
  13   0.0000       0.044684         1.2159
  14   0.0000       0.315959         8.5977
  15   0.0000       0.375850        10.2274

MULLIKEN ATOMIC CHARGES
-----------------------
   0 C :    0.204497
   1 O :   -0.102249
   2 O :   -0.102249
Sum of atomic charges:    0.0000000

LOEWDIN ATOMIC CHARGES
----------------------
   0 C :   -0.221293
   1 O :    0.110647
   2 O :    0.110647

  Mayer bond orders larger than 0.100000
B(  0-C ,  1-O ) :   2.2781 B(  0-C ,  2-O ) :   2.2781 B(  1-O ,  2-O ) :   0.2846

FINAL SINGLE POINT ENERGY      -187.204042914235

DIPOLE MOMENT
-------------
                                X             Y             Z
Electronic contribution:      0.00000      -0.00000      -0.00000
Nuclear contribution   :      0.00000       0.00000       0.00000
                        -----------------------------------------
Total Dipole Moment    :      0.00000      -0.00000      -0.00000
                        -----------------------------------------
Magnitude (a.u.)       :      0.00000
Magnitude (Debye)      :      0.00000

Rotational constants in cm-1:     0.000000     0.390110     0.390110
Rotational constants in MHz :     0.000000 11695.203081 11695.203081

                             ****ORCA TERMINATED NORMALLY****
TOTAL RUN TIME: 0 days 0 hours 0 minutes 3 seconds 732 msec
