                         Program Version 4.2.1 -  RELEASE  -
|  1> ! LDA cc-pcvtz nori grid5 finalgrid6 verytightscf
|  2> %Pal NProcs 18 End
|  3>
|  4> *xyz 0 1
|  5> C 0.0000 0.0000 0.0000
|  6> O 0.0000 0.0000 1.1621
|  7> O 0.0000 0.0000 -1.1621
|  8> **                         ****END OF INPUT****

CARTESIAN COORDINATES (ANGSTROEM)
---------------------------------
  C      0.000000    0.000000    0.000000
  O      0.000000    0.000000    1.162100
  O      0.000000    0.000000   -1.162100

 Total Charge           Charge          ....    0
 Multiplicity           Mult            ....    1
 Number of Electrons    NEL             ....   22
 Basis Dimension        Dim             ....  129

ORBITAL ENERGIES
----------------

  NO   OCC          E(Eh)            E(eV)
   0   2.0000     -18.688918      -508.5513
   1   2.0000     -18.688917      -508.5513
   2   2.0000      -9.960944      -271.0511
   3   2.0000      -1.067474       -29.0474
   4   2.0000      -1.032400       -28.0930
   5   2.0000      -0.504757       -13.7351
   6   2.0000      -0.474655       -12.9160
   7   2.0000      -0.474655       -12.9160
   8   2.0000      -0.468457       -12.7474
   9   2.0000      -0.338312        -9.2059
  10   2.0000      -0.338312        -9.2059
  11   0.0000      -0.017449        -0.4748
  12   0.0000      -0.017449        -0.4748
  13   0.0000       0.005211         0.1418
  14   0.0000       0.203577         5.5396
  15   0.0000       0.228575         6.2198

MULLIKEN ATOMIC CHARGES
-----------------------
   0 C :    0.363748
   1 O :   -0.181874
   2 O :   -0.181874
Sum of atomic charges:   -0.0000000

LOEWDIN ATOMIC CHARGES
----------------------
   0 C :   -0.577647
   1 O :    0.288824
   2 O :    0.288824

  Mayer bond orders larger than 0.100000
B(  0-C ,  1-O ) :   2.2470 B(  0-C ,  2-O ) :   2.2470 B(  1-O ,  2-O ) :   0.2436

FINAL SINGLE POINT ENERGY      -187.269102171578

DIPOLE MOMENT
-------------
                                X             Y             Z
Electronic contribution:      0.00000       0.00000       0.00000
Nuclear contribution   :      0.00000       0.00000       0.00000
                        -----------------------------------------
Total Dipole Moment    :      0.00000       0.00000       0.00000
                        -----------------------------------------
Magnitude (a.u.)       :      0.00000
Magnitude (Debye)      :      0.00000

Rotational constants in cm-1:     0.000000     0.390110     0.390110
Rotational constants in MHz :     0.000000 11695.203081 11695.203081

                             ****ORCA TERMINATED NORMALLY****
TOTAL RUN TIME: 0 days 0 hours 0 minutes 4 seconds 944 msec
