                         Program Version 4.2.1 -  RELEASE  -
|  1> ! LDA def2-tzvp nori grid5 finalgrid6 verytightscf
|  2> %Pal NProcs 18 End
|  3>
|  4> *xyz 0 1
|  5> C 0.0000 0.0000 0.0000
|  6> O 0.0000 0.0000 1.1621
|  7> O 0.0000 0.0000 -1.1621
|  8> **                         ****END OF INPUT****

CARTESIAN COORDINATES (ANGSTROEM)
---------------------------------
  C      0.000000    0.000000    0.000000
  O      0.000000    0.000000    1.162100
  O      0.000000    0.000000   -1.162100

 Total Charge           Charge          ....    0
 Multiplicity           Mult            ....    1
 Number of Electrons    NEL             ....   22
 Basis Dimension        Dim             ....   93

ORBITAL ENERGIES
----------------

  NO   OCC          E(Eh)            E(eV)
   0   2.0000     -18.691285      -508.6157
   1   2.0000     -18.691271      -508.6153
   2   2.0000      -9.960789      -271.0468
   3   2.0000      -1.069131       -29.0925
   4   2.0000      -1.034067       -28.1384
   5   2.0000      -0.506551       -13.7840
   6   2.0000      -0.476861       -12.9760
   7   2.0000      -0.476861       -12.9760
   8   2.0000      -0.470409       -12.8005
   9   2.0000      -0.340827        -9.2744
  10   2.0000      -0.340827        -9.2744
  11   0.0000      -0.020709        -0.5635
  12   0.0000      -0.020709        -0.5635
  13   0.0000      -0.012050        -0.3279
  14   0.0000       0.150839         4.1045
  15   0.0000       0.164055         4.4642

MULLIKEN ATOMIC CHARGES
-----------------------
   0 C :    0.224380
   1 O :   -0.112190
   2 O :   -0.112190
Sum of atomic charges:   -0.0000000

LOEWDIN ATOMIC CHARGES
----------------------
   0 C :   -0.461120
   1 O :    0.230560
   2 O :    0.230560

  Mayer bond orders larger than 0.100000
B(  0-C ,  1-O ) :   2.1697 B(  0-C ,  2-O ) :   2.1697 B(  1-O ,  2-O ) :   0.2476

FINAL SINGLE POINT ENERGY      -187.272527076089

DIPOLE MOMENT
-------------
                                X             Y             Z
Electronic contribution:      0.00000       0.00000       0.00000
Nuclear contribution   :      0.00000       0.00000       0.00000
                        -----------------------------------------
Total Dipole Moment    :      0.00000       0.00000       0.00000
                        -----------------------------------------
Magnitude (a.u.)       :      0.00000
Magnitude (Debye)      :      0.00000

Rotational constants in cm-1:     0.000000     0.390110     0.390110
Rotational constants in MHz :     0.000000 11695.203081 11695.203081

                             ****ORCA TERMINATED NORMALLY****
TOTAL RUN TIME: 0 days 0 hours 0 minutes 4 seconds 244 msec
