                         Program Version 4.2.1 -  RELEASE  -
|  1> ! LDA def2-qzvpp nori grid5 finalgrid6 verytightscf
|  2> %Pal NProcs 18 End
|  3>
|  4> *xyz 0 1
|  5> C 0.0000 0.0000 0.0000
|  6> O 0.0000 0.0000 1.1621
|  7> O 0.0000 0.0000 -1.1621
|  8> **                         ****END OF INPUT****

CARTESIAN COORDINATES (ANGSTROEM)
---------------------------------
  C      0.000000    0.000000    0.000000
  O      0.000000    0.000000    1.162100
  O      0.000000    0.000000   -1.162100

 Total Charge           Charge          ....    0
 Multiplicity           Mult            ....    1
 Number of Electrons    NEL             ....   22
 Basis Dimension        Dim             ....  171

ORBITAL ENERGIES
----------------

  NO   OCC          E(Eh)            E(eV)
   0   2.0000     -18.693423      -508.6739
   1   2.0000     -18.693423      -508.6739
   2   2.0000      -9.964747      -271.1545
   3   2.0000      -1.070157       -29.1204
   4   2.0000      -1.035068       -28.1656
   5   2.0000      -0.507953       -13.8221
   6   2.0000      -0.477958       -13.0059
   7   2.0000      -0.477958       -13.0059
   8   2.0000      -0.471758       -12.8372
   9   2.0000      -0.342126        -9.3097
  10   2.0000      -0.342126        -9.3097
  11   0.0000      -0.022936        -0.6241
  12   0.0000      -0.022936        -0.6241
  13   0.0000      -0.016415        -0.4467
  14   0.0000       0.099875         2.7177
  15   0.0000       0.099875         2.7177

MULLIKEN ATOMIC CHARGES
-----------------------
   0 C :    0.349520
   1 O :   -0.174760
   2 O :   -0.174760
Sum of atomic charges:    0.0000000

LOEWDIN ATOMIC CHARGES
----------------------
   0 C :   -0.804803
   1 O :    0.402401
   2 O :    0.402401

  Mayer bond orders larger than 0.100000
B(  0-C ,  1-O ) :   2.2195 B(  0-C ,  2-O ) :   2.2195 B(  1-O ,  2-O ) :   0.2226

FINAL SINGLE POINT ENERGY      -187.284969959405

DIPOLE MOMENT
-------------
                                X             Y             Z
Electronic contribution:     -0.00000       0.00000       0.00000
Nuclear contribution   :      0.00000       0.00000       0.00000
                        -----------------------------------------
Total Dipole Moment    :     -0.00000       0.00000       0.00000
                        -----------------------------------------
Magnitude (a.u.)       :      0.00000
Magnitude (Debye)      :      0.00000

Rotational constants in cm-1:     0.000000     0.390110     0.390110
Rotational constants in MHz :     0.000000 11695.203081 11695.203081

                             ****ORCA TERMINATED NORMALLY****
TOTAL RUN TIME: 0 days 0 hours 0 minutes 7 seconds 989 msec
