                         Program Version 4.2.1 -  RELEASE  -
|  1> ! LDA def2-svp nori grid5 finalgrid6 verytightscf
|  2> %Pal NProcs 18 End
|  3>
|  4> *xyz 0 1
|  5> C 0.0000 0.0000 0.0000
|  6> O 0.0000 0.0000 1.1621
|  7> O 0.0000 0.0000 -1.1621
|  8> **                         ****END OF INPUT****

CARTESIAN COORDINATES (ANGSTROEM)
---------------------------------
  C      0.000000    0.000000    0.000000
  O      0.000000    0.000000    1.162100
  O      0.000000    0.000000   -1.162100

 Total Charge           Charge          ....    0
 Multiplicity           Mult            ....    1
 Number of Electrons    NEL             ....   22
 Basis Dimension        Dim             ....   42

ORBITAL ENERGIES
----------------

  NO   OCC          E(Eh)            E(eV)
   0   2.0000     -18.685975      -508.4712
   1   2.0000     -18.685893      -508.4690
   2   2.0000      -9.963331      -271.1160
   3   2.0000      -1.049710       -28.5641
   4   2.0000      -1.015776       -27.6407
   5   2.0000      -0.486855       -13.2480
   6   2.0000      -0.469805       -12.7841
   7   2.0000      -0.469805       -12.7841
   8   2.0000      -0.456100       -12.4111
   9   2.0000      -0.330866        -9.0033
  10   2.0000      -0.330866        -9.0033
  11   0.0000      -0.011164        -0.3038
  12   0.0000      -0.011164        -0.3038
  13   0.0000       0.025243         0.6869
  14   0.0000       0.315172         8.5763
  15   0.0000       0.376199        10.2369

MULLIKEN ATOMIC CHARGES
-----------------------
   0 C :    0.190065
   1 O :   -0.095032
   2 O :   -0.095032
Sum of atomic charges:    0.0000000

LOEWDIN ATOMIC CHARGES
----------------------
   0 C :    0.067092
   1 O :   -0.033546
   2 O :   -0.033546

  Mayer bond orders larger than 0.100000
B(  0-C ,  1-O ) :   2.1822 B(  0-C ,  2-O ) :   2.1822 B(  1-O ,  2-O ) :   0.3122

FINAL SINGLE POINT ENERGY      -187.047030686540

DIPOLE MOMENT
-------------
                                X             Y             Z
Electronic contribution:      0.00000      -0.00000       0.00000
Nuclear contribution   :      0.00000       0.00000       0.00000
                        -----------------------------------------
Total Dipole Moment    :      0.00000      -0.00000       0.00000
                        -----------------------------------------
Magnitude (a.u.)       :      0.00000
Magnitude (Debye)      :      0.00000

Rotational constants in cm-1:     0.000000     0.390110     0.390110
Rotational constants in MHz :     0.000000 11695.203081 11695.203081

                             ****ORCA TERMINATED NORMALLY****
TOTAL RUN TIME: 0 days 0 hours 0 minutes 3 seconds 535 msec
