                         Program Version 4.2.1 -  RELEASE  -
|  1> ! LDA zora-def2-tzvp nori grid5 finalgrid6 verytightscf
|  2> %Pal NProcs 18 End
|  3>
|  4> *xyz 0 1
|  5> C 0.0000 0.0000 0.0000
|  6> O 0.0000 0.0000 1.1621
|  7> O 0.0000 0.0000 -1.1621
|  8> **                         ****END OF INPUT****

CARTESIAN COORDINATES (ANGSTROEM)
---------------------------------
  C      0.000000    0.000000    0.000000
  O      0.000000    0.000000    1.162100
  O      0.000000    0.000000   -1.162100

 Total Charge           Charge          ....    0
 Multiplicity           Mult            ....    1
 Number of Electrons    NEL             ....   22
 Basis Dimension        Dim             ....   96

ORBITAL ENERGIES
----------------

  NO   OCC          E(Eh)            E(eV)
   0   2.0000     -18.697294      -508.7792
   1   2.0000     -18.697292      -508.7792
   2   2.0000      -9.966122      -271.1920
   3   2.0000      -1.069164       -29.0934
   4   2.0000      -1.034081       -28.1388
   5   2.0000      -0.506555       -13.7841
   6   2.0000      -0.476885       -12.9767
   7   2.0000      -0.476885       -12.9767
   8   2.0000      -0.470415       -12.8006
   9   2.0000      -0.340853        -9.2751
  10   2.0000      -0.340853        -9.2751
  11   0.0000      -0.020803        -0.5661
  12   0.0000      -0.020803        -0.5661
  13   0.0000      -0.012069        -0.3284
  14   0.0000       0.150573         4.0973
  15   0.0000       0.164028         4.4634

MULLIKEN ATOMIC CHARGES
-----------------------
   0 C :    0.213985
   1 O :   -0.106993
   2 O :   -0.106993
Sum of atomic charges:    0.0000000

LOEWDIN ATOMIC CHARGES
----------------------
   0 C :   -0.465706
   1 O :    0.232853
   2 O :    0.232853

  Mayer bond orders larger than 0.100000
B(  0-C ,  1-O ) :   2.1771 B(  0-C ,  2-O ) :   2.1771 B(  1-O ,  2-O ) :   0.2469

FINAL SINGLE POINT ENERGY      -187.275174557690

DIPOLE MOMENT
-------------
                                X             Y             Z
Electronic contribution:     -0.00000       0.00000      -0.00000
Nuclear contribution   :      0.00000       0.00000       0.00000
                        -----------------------------------------
Total Dipole Moment    :     -0.00000       0.00000      -0.00000
                        -----------------------------------------
Magnitude (a.u.)       :      0.00000
Magnitude (Debye)      :      0.00000

Rotational constants in cm-1:     0.000000     0.390110     0.390110
Rotational constants in MHz :     0.000000 11695.203081 11695.203081

                             ****ORCA TERMINATED NORMALLY****
TOTAL RUN TIME: 0 days 0 hours 0 minutes 4 seconds 380 msec
