                         Program Version 4.2.1 -  RELEASE  -
|  1> ! LDA cc-pcv5z nori grid5 finalgrid6 verytightscf
|  2> %Pal NProcs 18 End
|  3>
|  4> *xyz 0 1
|  5> C 0.0000 0.0000 0.0000
|  6> O 0.0000 0.0000 1.1621
|  7> O 0.0000 0.0000 -1.1621
|  8> **                         ****END OF INPUT****

CARTESIAN COORDINATES (ANGSTROEM)
---------------------------------
  C      0.000000    0.000000    0.000000
  O      0.000000    0.000000    1.162100
  O      0.000000    0.000000   -1.162100

 Total Charge           Charge          ....    0
 Multiplicity           Mult            ....    1
 Number of Electrons    NEL             ....   22
 Basis Dimension        Dim             ....  435

ORBITAL ENERGIES
----------------

  NO   OCC          E(Eh)            E(eV)
   0   2.0000     -18.691402      -508.6189
   1   2.0000     -18.691402      -508.6189
   2   2.0000      -9.963951      -271.1329
   3   2.0000      -1.070151       -29.1203
   4   2.0000      -1.035083       -28.1660
   5   2.0000      -0.508142       -13.8273
   6   2.0000      -0.478091       -13.0095
   7   2.0000      -0.478091       -13.0095
   8   2.0000      -0.471953       -12.8425
   9   2.0000      -0.342291        -9.3142
  10   2.0000      -0.342291        -9.3142
  11   0.0000      -0.023128        -0.6293
  12   0.0000      -0.023128        -0.6293
  13   0.0000      -0.020672        -0.5625
  14   0.0000       0.094695         2.5768
  15   0.0000       0.094695         2.5768

MULLIKEN ATOMIC CHARGES
-----------------------
   0 C :    0.448530
   1 O :   -0.224265
   2 O :   -0.224265
Sum of atomic charges:    0.0000000

LOEWDIN ATOMIC CHARGES
----------------------
   0 C :   -1.130344
   1 O :    0.565172
   2 O :    0.565172

  Mayer bond orders larger than 0.100000
B(  0-C ,  1-O ) :   2.2154 B(  0-C ,  2-O ) :   2.2154 B(  1-O ,  2-O ) :   0.2457

FINAL SINGLE POINT ENERGY      -187.286550124074

DIPOLE MOMENT
-------------
                                X             Y             Z
Electronic contribution:      0.00000      -0.00000       0.00000
Nuclear contribution   :      0.00000       0.00000       0.00000
                        -----------------------------------------
Total Dipole Moment    :      0.00000      -0.00000       0.00000
                        -----------------------------------------
Magnitude (a.u.)       :      0.00000
Magnitude (Debye)      :      0.00000

Rotational constants in cm-1:     0.000000     0.390110     0.390110
Rotational constants in MHz :     0.000000 11695.203081 11695.203081

                             ****ORCA TERMINATED NORMALLY****
TOTAL RUN TIME: 0 days 0 hours 1 minutes 34 seconds 516 msec
