                         Program Version 4.2.1 -  RELEASE  -
|  1> ! LDA zora-def2-svp nori grid5 finalgrid6 verytightscf
|  2> %Pal NProcs 18 End
|  3>
|  4> *xyz 0 1
|  5> C 0.0000 0.0000 0.0000
|  6> O 0.0000 0.0000 1.1621
|  7> O 0.0000 0.0000 -1.1621
|  8> **                         ****END OF INPUT****

CARTESIAN COORDINATES (ANGSTROEM)
---------------------------------
  C      0.000000    0.000000    0.000000
  O      0.000000    0.000000    1.162100
  O      0.000000    0.000000   -1.162100

 Total Charge           Charge          ....    0
 Multiplicity           Mult            ....    1
 Number of Electrons    NEL             ....   22
 Basis Dimension        Dim             ....   42

ORBITAL ENERGIES
----------------

  NO   OCC          E(Eh)            E(eV)
   0   2.0000     -18.666829      -507.9502
   1   2.0000     -18.666732      -507.9476
   2   2.0000      -9.952115      -270.8108
   3   2.0000      -1.047083       -28.4926
   4   2.0000      -1.013543       -27.5799
   5   2.0000      -0.485573       -13.2131
   6   2.0000      -0.470935       -12.8148
   7   2.0000      -0.470935       -12.8148
   8   2.0000      -0.456135       -12.4121
   9   2.0000      -0.331975        -9.0335
  10   2.0000      -0.331975        -9.0335
  11   0.0000      -0.012194        -0.3318
  12   0.0000      -0.012194        -0.3318
  13   0.0000       0.025637         0.6976
  14   0.0000       0.315588         8.5876
  15   0.0000       0.375718        10.2238

MULLIKEN ATOMIC CHARGES
-----------------------
   0 C :    0.208888
   1 O :   -0.104444
   2 O :   -0.104444
Sum of atomic charges:    0.0000000

LOEWDIN ATOMIC CHARGES
----------------------
   0 C :    0.067540
   1 O :   -0.033770
   2 O :   -0.033770

  Mayer bond orders larger than 0.100000
B(  0-C ,  1-O ) :   2.1749 B(  0-C ,  2-O ) :   2.1749 B(  1-O ,  2-O ) :   0.3120

FINAL SINGLE POINT ENERGY      -187.030757059055

DIPOLE MOMENT
-------------
                                X             Y             Z
Electronic contribution:      0.00000      -0.00000       0.00000
Nuclear contribution   :      0.00000       0.00000       0.00000
                        -----------------------------------------
Total Dipole Moment    :      0.00000      -0.00000       0.00000
                        -----------------------------------------
Magnitude (a.u.)       :      0.00000
Magnitude (Debye)      :      0.00000

Rotational constants in cm-1:     0.000000     0.390110     0.390110
Rotational constants in MHz :     0.000000 11695.203081 11695.203081

                             ****ORCA TERMINATED NORMALLY****
TOTAL RUN TIME: 0 days 0 hours 0 minutes 3 seconds 627 msec
