                         Program Version 4.2.1 -  RELEASE  -
|  1> ! LDA pc-2 nori grid5 finalgrid6 verytightscf
|  2> %Pal NProcs 18 End
|  3>
|  4> *xyz 0 1
|  5> C 0.0000 0.0000 0.0000
|  6> O 0.0000 0.0000 1.1621
|  7> O 0.0000 0.0000 -1.1621
|  8> **                         ****END OF INPUT****

CARTESIAN COORDINATES (ANGSTROEM)
---------------------------------
  C      0.000000    0.000000    0.000000
  O      0.000000    0.000000    1.162100
  O      0.000000    0.000000   -1.162100

 Total Charge           Charge          ....    0
 Multiplicity           Mult            ....    1
 Number of Electrons    NEL             ....   22
 Basis Dimension        Dim             ....   90

ORBITAL ENERGIES
----------------

  NO   OCC          E(Eh)            E(eV)
   0   2.0000     -18.676678      -508.2182
   1   2.0000     -18.676629      -508.2169
   2   2.0000      -9.957097      -270.9464
   3   2.0000      -1.071187       -29.1485
   4   2.0000      -1.036151       -28.1951
   5   2.0000      -0.508079       -13.8255
   6   2.0000      -0.478856       -13.0303
   7   2.0000      -0.478856       -13.0303
   8   2.0000      -0.471956       -12.8426
   9   2.0000      -0.342587        -9.3223
  10   2.0000      -0.342587        -9.3223
  11   0.0000      -0.022901        -0.6232
  12   0.0000      -0.022901        -0.6232
  13   0.0000      -0.004909        -0.1336
  14   0.0000       0.126865         3.4522
  15   0.0000       0.126865         3.4522

MULLIKEN ATOMIC CHARGES
-----------------------
   0 C :    0.443244
   1 O :   -0.221622
   2 O :   -0.221622
Sum of atomic charges:   -0.0000000

LOEWDIN ATOMIC CHARGES
----------------------
   0 C :   -0.169590
   1 O :    0.084795
   2 O :    0.084795

  Mayer bond orders larger than 0.100000
B(  0-C ,  1-O ) :   2.1144 B(  0-C ,  2-O ) :   2.1144 B(  1-O ,  2-O ) :   0.2582

FINAL SINGLE POINT ENERGY      -187.273496819361

DIPOLE MOMENT
-------------
                                X             Y             Z
Electronic contribution:      0.00000       0.00000      -0.00000
Nuclear contribution   :      0.00000       0.00000       0.00000
                        -----------------------------------------
Total Dipole Moment    :      0.00000       0.00000      -0.00000
                        -----------------------------------------
Magnitude (a.u.)       :      0.00000
Magnitude (Debye)      :      0.00000

Rotational constants in cm-1:     0.000000     0.390110     0.390110
Rotational constants in MHz :     0.000000 11695.203081 11695.203081

                             ****ORCA TERMINATED NORMALLY****
TOTAL RUN TIME: 0 days 0 hours 0 minutes 4 seconds 439 msec
