                         Program Version 4.2.1 -  RELEASE  -
|  1> ! LDA def2-svp nori grid5 finalgrid6 verytightscf
|  2> %Pal NProcs 18 End
|  3>
|  4> *xyz 0 1
|  5> Cr -7.024455 2.159906 2.687477
|  6> C -5.745125 2.453969 4.046034
|  7> C -5.747986 1.193764 1.686659
|  8> C -6.493665 3.759856 1.835371
|  9> C -8.300845 3.126754 3.687779
| 10> O -9.070901 3.715082 4.291407
| 11> O -4.974179 2.632342 4.869002
| 12> O -4.977695 0.606824 1.081974
| 13> O -6.176347 4.727975 1.320041
| 14> C -8.304393 1.866232 1.329334
| 15> O -9.076187 1.688738 0.506975
| 16> C -7.553951 0.559352 3.539091
| 17> O -7.868850 -0.410064 4.053526
| 18> **                         ****END OF INPUT****

CARTESIAN COORDINATES (ANGSTROEM)
---------------------------------
  Cr    -7.024455    2.159906    2.687477
  C     -5.745125    2.453969    4.046034
  C     -5.747986    1.193764    1.686659
  C     -6.493665    3.759856    1.835371
  C     -8.300845    3.126754    3.687779
  O     -9.070901    3.715082    4.291407
  O     -4.974179    2.632342    4.869002
  O     -4.977695    0.606824    1.081974
  O     -6.176347    4.727975    1.320041
  C     -8.304393    1.866232    1.329334
  O     -9.076187    1.688738    0.506975
  C     -7.553951    0.559352    3.539091
  O     -7.868850   -0.410064    4.053526

 Total Charge           Charge          ....    0
 Multiplicity           Mult            ....    1
 Number of Electrons    NEL             ....  108
 Basis Dimension        Dim             ....  199

ORBITAL ENERGIES
----------------

  NO   OCC          E(Eh)            E(eV)
   0   2.0000    -213.988393     -5822.9202
   1   2.0000     -24.271564      -660.4628
   2   2.0000     -20.692321      -563.0667
   3   2.0000     -20.692307      -563.0663
   4   2.0000     -20.692238      -563.0644
   5   2.0000     -18.702751      -508.9277
   6   2.0000     -18.702733      -508.9272
   7   2.0000     -18.702685      -508.9259
   8   2.0000     -18.702667      -508.9254
   9   2.0000     -18.702587      -508.9233
  10   2.0000     -18.702317      -508.9159
  11   2.0000      -9.918156      -269.8867
  12   2.0000      -9.918111      -269.8855
  13   2.0000      -9.918053      -269.8839
  14   2.0000      -9.918008      -269.8827
  15   2.0000      -9.917997      -269.8824
  16   2.0000      -9.917895      -269.8797
  17   2.0000      -2.732872       -74.3652
  18   2.0000      -1.737279       -47.2738
  19   2.0000      -1.737167       -47.2707
  20   2.0000      -1.736915       -47.2639
  21   2.0000      -1.046302       -28.4713
  22   2.0000      -1.045216       -28.4418
  23   2.0000      -1.045153       -28.4401
  24   2.0000      -1.045078       -28.4380
  25   2.0000      -1.044803       -28.4305
  26   2.0000      -1.044727       -28.4285
  27   2.0000      -0.552252       -15.0275
  28   2.0000      -0.505374       -13.7519
  29   2.0000      -0.505325       -13.7506
  30   2.0000      -0.504995       -13.7416
  31   2.0000      -0.502025       -13.6608
  32   2.0000      -0.501973       -13.6594
  33   2.0000      -0.455814       -12.4033
  34   2.0000      -0.448774       -12.2118
  35   2.0000      -0.448704       -12.2099
  36   2.0000      -0.448533       -12.2052
  37   2.0000      -0.442933       -12.0528
  38   2.0000      -0.442818       -12.0497
  39   2.0000      -0.442510       -12.0413
  40   2.0000      -0.429466       -11.6864
  41   2.0000      -0.429230       -11.6799
  42   2.0000      -0.429192       -11.6789
  43   2.0000      -0.422243       -11.4898
  44   2.0000      -0.422202       -11.4887
  45   2.0000      -0.422172       -11.4879
  46   2.0000      -0.412399       -11.2219
  47   2.0000      -0.412344       -11.2204
  48   2.0000      -0.371706       -10.1146
  49   2.0000      -0.371542       -10.1102
  50   2.0000      -0.370927       -10.0934
  51   2.0000      -0.239859        -6.5269
  52   2.0000      -0.239778        -6.5247
  53   2.0000      -0.239442        -6.5156
  54   0.0000      -0.088600        -2.4109
  55   0.0000      -0.088414        -2.4059
  56   0.0000      -0.087867        -2.3910
  57   0.0000      -0.073759        -2.0071
  58   0.0000      -0.073144        -1.9903

MULLIKEN ATOMIC CHARGES
-----------------------
   0 Cr:   -1.667778
   1 C :    0.235247
   2 C :    0.235390
   3 C :    0.235301
   4 C :    0.235401
   5 O :    0.042564
   6 O :    0.042722
   7 O :    0.042559
   8 O :    0.042665
   9 C :    0.235254
  10 O :    0.042734
  11 C :    0.235329
  12 O :    0.042611
Sum of atomic charges:   -0.0000000

LOEWDIN ATOMIC CHARGES
----------------------
   0 Cr:   -1.475721
   1 C :    0.181598
   2 C :    0.181442
   3 C :    0.181560
   4 C :    0.181438
   5 O :    0.064339
   6 O :    0.064504
   7 O :    0.064330
   8 O :    0.064438
   9 C :    0.181600
  10 O :    0.064515
  11 C :    0.181556
  12 O :    0.064400

  Mayer bond orders larger than 0.100000
B(  0-Cr,  1-C ) :   1.2963 B(  0-Cr,  2-C ) :   1.2972 B(  0-Cr,  3-C ) :   1.2965
B(  0-Cr,  4-C ) :   1.2973 B(  0-Cr,  5-O ) :   0.1142 B(  0-Cr,  6-O ) :   0.1140
B(  0-Cr,  7-O ) :   0.1142 B(  0-Cr,  8-O ) :   0.1141 B(  0-Cr,  9-C ) :   1.2963
B(  0-Cr, 10-O ) :   0.1140 B(  0-Cr, 11-C ) :   1.2967 B(  0-Cr, 12-O ) :   0.1141
B(  1-C ,  6-O ) :   2.4652 B(  2-C ,  7-O ) :   2.4649 B(  3-C ,  8-O ) :   2.4651
B(  4-C ,  5-O ) :   2.4649 B(  9-C , 10-O ) :   2.4653 B( 11-C , 12-O ) :   2.4650

FINAL SINGLE POINT ENERGY     -1716.544158231660

DIPOLE MOMENT
-------------
                                X             Y             Z
Electronic contribution:     -0.00112      -0.00044       0.00072
Nuclear contribution   :      0.00087       0.00051      -0.00066
                        -----------------------------------------
Total Dipole Moment    :     -0.00025       0.00006       0.00006
                        -----------------------------------------
Magnitude (a.u.)       :      0.00026
Magnitude (Debye)      :      0.00067

Rotational constants in cm-1:     0.022283     0.022240     0.022104
Rotational constants in MHz :   668.016885   666.751386   662.674535

                             ****ORCA TERMINATED NORMALLY****
TOTAL RUN TIME: 0 days 0 hours 0 minutes 15 seconds 371 msec
