                         Program Version 4.2.1 -  RELEASE  -
|  1> ! LDA zora-def2-svp nori grid5 finalgrid6 verytightscf
|  2> %Pal NProcs 18 End
|  3>
|  4> *xyz 0 1
|  5> Cr -7.024455 2.159906 2.687477
|  6> C -5.745125 2.453969 4.046034
|  7> C -5.747986 1.193764 1.686659
|  8> C -6.493665 3.759856 1.835371
|  9> C -8.300845 3.126754 3.687779
| 10> O -9.070901 3.715082 4.291407
| 11> O -4.974179 2.632342 4.869002
| 12> O -4.977695 0.606824 1.081974
| 13> O -6.176347 4.727975 1.320041
| 14> C -8.304393 1.866232 1.329334
| 15> O -9.076187 1.688738 0.506975
| 16> C -7.553951 0.559352 3.539091
| 17> O -7.868850 -0.410064 4.053526
| 18> **                         ****END OF INPUT****

CARTESIAN COORDINATES (ANGSTROEM)
---------------------------------
  Cr    -7.024455    2.159906    2.687477
  C     -5.745125    2.453969    4.046034
  C     -5.747986    1.193764    1.686659
  C     -6.493665    3.759856    1.835371
  C     -8.300845    3.126754    3.687779
  O     -9.070901    3.715082    4.291407
  O     -4.974179    2.632342    4.869002
  O     -4.977695    0.606824    1.081974
  O     -6.176347    4.727975    1.320041
  C     -8.304393    1.866232    1.329334
  O     -9.076187    1.688738    0.506975
  C     -7.553951    0.559352    3.539091
  O     -7.868850   -0.410064    4.053526

 Total Charge           Charge          ....    0
 Multiplicity           Mult            ....    1
 Number of Electrons    NEL             ....  108
 Basis Dimension        Dim             ....  209

ORBITAL ENERGIES
----------------

  NO   OCC          E(Eh)            E(eV)
   0   2.0000    -213.868501     -5819.6578
   1   2.0000     -24.212345      -658.8514
   2   2.0000     -20.644785      -561.7732
   3   2.0000     -20.644770      -561.7727
   4   2.0000     -20.644696      -561.7707
   5   2.0000     -18.684051      -508.4189
   6   2.0000     -18.684024      -508.4181
   7   2.0000     -18.683977      -508.4169
   8   2.0000     -18.683966      -508.4166
   9   2.0000     -18.683878      -508.4142
  10   2.0000     -18.683554      -508.4054
  11   2.0000      -9.906700      -269.5750
  12   2.0000      -9.906655      -269.5738
  13   2.0000      -9.906553      -269.5710
  14   2.0000      -9.906536      -269.5706
  15   2.0000      -9.906481      -269.5691
  16   2.0000      -9.906380      -269.5663
  17   2.0000      -2.724049       -74.1251
  18   2.0000      -1.732104       -47.1329
  19   2.0000      -1.731992       -47.1299
  20   2.0000      -1.731740       -47.1230
  21   2.0000      -1.043915       -28.4064
  22   2.0000      -1.042788       -28.3757
  23   2.0000      -1.042726       -28.3740
  24   2.0000      -1.042651       -28.3720
  25   2.0000      -1.042371       -28.3644
  26   2.0000      -1.042295       -28.3623
  27   2.0000      -0.552366       -15.0306
  28   2.0000      -0.504703       -13.7337
  29   2.0000      -0.504654       -13.7323
  30   2.0000      -0.504323       -13.7233
  31   2.0000      -0.501242       -13.6395
  32   2.0000      -0.501190       -13.6381
  33   2.0000      -0.457060       -12.4372
  34   2.0000      -0.450205       -12.2507
  35   2.0000      -0.450135       -12.2488
  36   2.0000      -0.449964       -12.2441
  37   2.0000      -0.444427       -12.0935
  38   2.0000      -0.444313       -12.0904
  39   2.0000      -0.444007       -12.0820
  40   2.0000      -0.430807       -11.7228
  41   2.0000      -0.430571       -11.7164
  42   2.0000      -0.430533       -11.7154
  43   2.0000      -0.423562       -11.5257
  44   2.0000      -0.423522       -11.5246
  45   2.0000      -0.423492       -11.5238
  46   2.0000      -0.413704       -11.2574
  47   2.0000      -0.413649       -11.2560
  48   2.0000      -0.373315       -10.1584
  49   2.0000      -0.373153       -10.1540
  50   2.0000      -0.372544       -10.1374
  51   2.0000      -0.240934        -6.5561
  52   2.0000      -0.240852        -6.5539
  53   2.0000      -0.240516        -6.5448
  54   0.0000      -0.090426        -2.4606
  55   0.0000      -0.090239        -2.4555
  56   0.0000      -0.089685        -2.4405
  57   0.0000      -0.075365        -2.0508
  58   0.0000      -0.074750        -2.0341

MULLIKEN ATOMIC CHARGES
-----------------------
   0 Cr:   -0.973188
   1 C :    0.133627
   2 C :    0.133584
   3 C :    0.133658
   4 C :    0.133546
   5 O :    0.028517
   6 O :    0.028669
   7 O :    0.028511
   8 O :    0.028611
   9 C :    0.133627
  10 O :    0.028682
  11 C :    0.133594
  12 O :    0.028562
Sum of atomic charges:    0.0000000

LOEWDIN ATOMIC CHARGES
----------------------
   0 Cr:   -1.591957
   1 C :    0.198444
   2 C :    0.198400
   3 C :    0.198437
   4 C :    0.198392
   5 O :    0.066823
   6 O :    0.066981
   7 O :    0.066814
   8 O :    0.066917
   9 C :    0.198442
  10 O :    0.066992
  11 C :    0.198438
  12 O :    0.066879

  Mayer bond orders larger than 0.100000
B(  0-Cr,  1-C ) :   1.1136 B(  0-Cr,  2-C ) :   1.1145 B(  0-Cr,  3-C ) :   1.1139
B(  0-Cr,  4-C ) :   1.1145 B(  0-Cr,  5-O ) :   0.1221 B(  0-Cr,  6-O ) :   0.1219
B(  0-Cr,  7-O ) :   0.1221 B(  0-Cr,  8-O ) :   0.1220 B(  0-Cr,  9-C ) :   1.1136
B(  0-Cr, 10-O ) :   0.1219 B(  0-Cr, 11-C ) :   1.1140 B(  0-Cr, 12-O ) :   0.1220
B(  1-C ,  6-O ) :   2.4522 B(  2-C ,  7-O ) :   2.4518 B(  3-C ,  8-O ) :   2.4520
B(  4-C ,  5-O ) :   2.4518 B(  9-C , 10-O ) :   2.4522 B( 11-C , 12-O ) :   2.4520

FINAL SINGLE POINT ENERGY     -1716.366432012937

DIPOLE MOMENT
-------------
                                X             Y             Z
Electronic contribution:     -0.00114      -0.00045       0.00073
Nuclear contribution   :      0.00087       0.00051      -0.00066
                        -----------------------------------------
Total Dipole Moment    :     -0.00026       0.00006       0.00007
                        -----------------------------------------
Magnitude (a.u.)       :      0.00028
Magnitude (Debye)      :      0.00071

Rotational constants in cm-1:     0.022283     0.022240     0.022104
Rotational constants in MHz :   668.016885   666.751386   662.674535

                             ****ORCA TERMINATED NORMALLY****
TOTAL RUN TIME: 0 days 0 hours 0 minutes 15 seconds 689 msec
