                         Program Version 4.2.1 -  RELEASE  -
|  1> ! LDA cc-pvtz nori grid5 finalgrid6 verytightscf
|  2> %Pal NProcs 18 End
|  3>
|  4> *xyz 0 1
|  5> Cr -7.024455 2.159906 2.687477
|  6> C -5.745125 2.453969 4.046034
|  7> C -5.747986 1.193764 1.686659
|  8> C -6.493665 3.759856 1.835371
|  9> C -8.300845 3.126754 3.687779
| 10> O -9.070901 3.715082 4.291407
| 11> O -4.974179 2.632342 4.869002
| 12> O -4.977695 0.606824 1.081974
| 13> O -6.176347 4.727975 1.320041
| 14> C -8.304393 1.866232 1.329334
| 15> O -9.076187 1.688738 0.506975
| 16> C -7.553951 0.559352 3.539091
| 17> O -7.868850 -0.410064 4.053526
| 18> **                         ****END OF INPUT****

CARTESIAN COORDINATES (ANGSTROEM)
---------------------------------
  Cr    -7.024455    2.159906    2.687477
  C     -5.745125    2.453969    4.046034
  C     -5.747986    1.193764    1.686659
  C     -6.493665    3.759856    1.835371
  C     -8.300845    3.126754    3.687779
  O     -9.070901    3.715082    4.291407
  O     -4.974179    2.632342    4.869002
  O     -4.977695    0.606824    1.081974
  O     -6.176347    4.727975    1.320041
  C     -8.304393    1.866232    1.329334
  O     -9.076187    1.688738    0.506975
  C     -7.553951    0.559352    3.539091
  O     -7.868850   -0.410064    4.053526

 Total Charge           Charge          ....    0
 Multiplicity           Mult            ....    1
 Number of Electrons    NEL             ....  108
 Basis Dimension        Dim             ....  428

ORBITAL ENERGIES
----------------

  NO   OCC          E(Eh)            E(eV)
   0   2.0000    -213.955196     -5822.0169
   1   2.0000     -24.230513      -659.3458
   2   2.0000     -20.641420      -561.6816
   3   2.0000     -20.641404      -561.6811
   4   2.0000     -20.641331      -561.6792
   5   2.0000     -18.705386      -508.9994
   6   2.0000     -18.705379      -508.9992
   7   2.0000     -18.705341      -508.9982
   8   2.0000     -18.705325      -508.9978
   9   2.0000     -18.705243      -508.9955
  10   2.0000     -18.705239      -508.9954
  11   2.0000      -9.918922      -269.9076
  12   2.0000      -9.918915      -269.9074
  13   2.0000      -9.918884      -269.9066
  14   2.0000      -9.918869      -269.9061
  15   2.0000      -9.918778      -269.9037
  16   2.0000      -9.918770      -269.9035
  17   2.0000      -2.728654       -74.2505
  18   2.0000      -1.734151       -47.1887
  19   2.0000      -1.734047       -47.1858
  20   2.0000      -1.733818       -47.1796
  21   2.0000      -1.062981       -28.9252
  22   2.0000      -1.061976       -28.8978
  23   2.0000      -1.061915       -28.8962
  24   2.0000      -1.061843       -28.8942
  25   2.0000      -1.061504       -28.8850
  26   2.0000      -1.061429       -28.8830
  27   2.0000      -0.566870       -15.4253
  28   2.0000      -0.519968       -14.1491
  29   2.0000      -0.519915       -14.1476
  30   2.0000      -0.519578       -14.1384
  31   2.0000      -0.516784       -14.0624
  32   2.0000      -0.516735       -14.0611
  33   2.0000      -0.463350       -12.6084
  34   2.0000      -0.453863       -12.3502
  35   2.0000      -0.453795       -12.3484
  36   2.0000      -0.453626       -12.3438
  37   2.0000      -0.448355       -12.2004
  38   2.0000      -0.448242       -12.1973
  39   2.0000      -0.447935       -12.1889
  40   2.0000      -0.434197       -11.8151
  41   2.0000      -0.433962       -11.8087
  42   2.0000      -0.433923       -11.8076
  43   2.0000      -0.426846       -11.6151
  44   2.0000      -0.426808       -11.6140
  45   2.0000      -0.426779       -11.6132
  46   2.0000      -0.420007       -11.4290
  47   2.0000      -0.419957       -11.4276
  48   2.0000      -0.379815       -10.3353
  49   2.0000      -0.379664       -10.3312
  50   2.0000      -0.379091       -10.3156
  51   2.0000      -0.245970        -6.6932
  52   2.0000      -0.245895        -6.6911
  53   2.0000      -0.245578        -6.6825
  54   0.0000      -0.096214        -2.6181
  55   0.0000      -0.096036        -2.6133
  56   0.0000      -0.095508        -2.5989
  57   0.0000      -0.081677        -2.2225
  58   0.0000      -0.081058        -2.2057

MULLIKEN ATOMIC CHARGES
-----------------------
   0 Cr:   -0.633282
   1 C :    0.161544
   2 C :    0.161726
   3 C :    0.161630
   4 C :    0.161651
   5 O :   -0.056174
   6 O :   -0.055949
   7 O :   -0.056173
   8 O :   -0.056025
   9 C :    0.161507
  10 O :   -0.055937
  11 C :    0.161572
  12 O :   -0.056089
Sum of atomic charges:   -0.0000000

LOEWDIN ATOMIC CHARGES
----------------------
   0 Cr:   -1.172866
   1 C :   -0.209339
   2 C :   -0.210294
   3 C :   -0.209585
   4 C :   -0.210262
   5 O :    0.405189
   6 O :    0.405252
   7 O :    0.405187
   8 O :    0.405209
   9 C :   -0.209297
  10 O :    0.405256
  11 C :   -0.209612
  12 O :    0.405163

  Mayer bond orders larger than 0.100000
B(  0-Cr,  1-C ) :   1.0685 B(  0-Cr,  2-C ) :   1.0696 B(  0-Cr,  3-C ) :   1.0688
B(  0-Cr,  4-C ) :   1.0695 B(  0-Cr,  5-O ) :   0.1657 B(  0-Cr,  6-O ) :   0.1655
B(  0-Cr,  7-O ) :   0.1658 B(  0-Cr,  8-O ) :   0.1656 B(  0-Cr,  9-C ) :   1.0684
B(  0-Cr, 10-O ) :   0.1655 B(  0-Cr, 11-C ) :   1.0689 B(  0-Cr, 12-O ) :   0.1656
B(  1-C ,  6-O ) :   2.2939 B(  2-C ,  7-O ) :   2.2932 B(  3-C ,  8-O ) :   2.2936
B(  4-C ,  5-O ) :   2.2932 B(  9-C , 10-O ) :   2.2939 B( 11-C , 12-O ) :   2.2936

FINAL SINGLE POINT ENERGY     -1717.491322926648

DIPOLE MOMENT
-------------
                                X             Y             Z
Electronic contribution:     -0.00119      -0.00047       0.00076
Nuclear contribution   :      0.00087       0.00051      -0.00066
                        -----------------------------------------
Total Dipole Moment    :     -0.00031       0.00003       0.00010
                        -----------------------------------------
Magnitude (a.u.)       :      0.00033
Magnitude (Debye)      :      0.00084

Rotational constants in cm-1:     0.022283     0.022240     0.022104
Rotational constants in MHz :   668.016885   666.751386   662.674535

                             ****ORCA TERMINATED NORMALLY****
TOTAL RUN TIME: 0 days 0 hours 15 minutes 46 seconds 908 msec
