                         Program Version 4.2.1 -  RELEASE  -
|  1> ! LDA pc-3 nori grid5 finalgrid6 verytightscf
|  2> %Pal NProcs 18 End
|  3>
|  4> *xyz 0 1
|  5> Cr -7.024455 2.159906 2.687477
|  6> C -5.745125 2.453969 4.046034
|  7> C -5.747986 1.193764 1.686659
|  8> C -6.493665 3.759856 1.835371
|  9> C -8.300845 3.126754 3.687779
| 10> O -9.070901 3.715082 4.291407
| 11> O -4.974179 2.632342 4.869002
| 12> O -4.977695 0.606824 1.081974
| 13> O -6.176347 4.727975 1.320041
| 14> C -8.304393 1.866232 1.329334
| 15> O -9.076187 1.688738 0.506975
| 16> C -7.553951 0.559352 3.539091
| 17> O -7.868850 -0.410064 4.053526
| 18> **                         ****END OF INPUT****

CARTESIAN COORDINATES (ANGSTROEM)
---------------------------------
  Cr    -7.024455    2.159906    2.687477
  C     -5.745125    2.453969    4.046034
  C     -5.747986    1.193764    1.686659
  C     -6.493665    3.759856    1.835371
  C     -8.300845    3.126754    3.687779
  O     -9.070901    3.715082    4.291407
  O     -4.974179    2.632342    4.869002
  O     -4.977695    0.606824    1.081974
  O     -6.176347    4.727975    1.320041
  C     -8.304393    1.866232    1.329334
  O     -9.076187    1.688738    0.506975
  C     -7.553951    0.559352    3.539091
  O     -7.868850   -0.410064    4.053526

 Total Charge           Charge          ....    0
 Multiplicity           Mult            ....    1
 Number of Electrons    NEL             ....  108
 Basis Dimension        Dim             ....  860

ORBITAL ENERGIES
----------------

  NO   OCC          E(Eh)            E(eV)
   0   2.0000    -213.919092     -5821.0344
   1   2.0000     -24.221815      -659.1091
   2   2.0000     -20.629701      -561.3627
   3   2.0000     -20.629685      -561.3623
   4   2.0000     -20.629612      -561.3603
   5   2.0000     -18.705785      -509.0103
   6   2.0000     -18.705778      -509.0101
   7   2.0000     -18.705741      -509.0091
   8   2.0000     -18.705725      -509.0087
   9   2.0000     -18.705643      -509.0064
  10   2.0000     -18.705639      -509.0063
  11   2.0000      -9.920972      -269.9634
  12   2.0000      -9.920968      -269.9633
  13   2.0000      -9.920934      -269.9623
  14   2.0000      -9.920921      -269.9620
  15   2.0000      -9.920826      -269.9594
  16   2.0000      -9.920825      -269.9594
  17   2.0000      -2.731176       -74.3191
  18   2.0000      -1.737250       -47.2730
  19   2.0000      -1.737148       -47.2702
  20   2.0000      -1.736924       -47.2641
  21   2.0000      -1.064551       -28.9679
  22   2.0000      -1.063504       -28.9394
  23   2.0000      -1.063443       -28.9378
  24   2.0000      -1.063372       -28.9358
  25   2.0000      -1.063032       -28.9266
  26   2.0000      -1.062958       -28.9246
  27   2.0000      -0.569105       -15.4861
  28   2.0000      -0.522259       -14.2114
  29   2.0000      -0.522207       -14.2100
  30   2.0000      -0.521873       -14.2009
  31   2.0000      -0.519202       -14.1282
  32   2.0000      -0.519154       -14.1269
  33   2.0000      -0.466097       -12.6831
  34   2.0000      -0.456455       -12.4208
  35   2.0000      -0.456388       -12.4189
  36   2.0000      -0.456221       -12.4144
  37   2.0000      -0.450933       -12.2705
  38   2.0000      -0.450821       -12.2675
  39   2.0000      -0.450515       -12.2591
  40   2.0000      -0.436860       -11.8876
  41   2.0000      -0.436627       -11.8812
  42   2.0000      -0.436588       -11.8802
  43   2.0000      -0.429512       -11.6876
  44   2.0000      -0.429474       -11.6866
  45   2.0000      -0.429445       -11.6858
  46   2.0000      -0.422934       -11.5086
  47   2.0000      -0.422883       -11.5072
  48   2.0000      -0.382585       -10.4107
  49   2.0000      -0.382434       -10.4066
  50   2.0000      -0.381860       -10.3909
  51   2.0000      -0.249434        -6.7874
  52   2.0000      -0.249360        -6.7854
  53   2.0000      -0.249048        -6.7769
  54   0.0000      -0.099672        -2.7122
  55   0.0000      -0.099495        -2.7074
  56   0.0000      -0.098966        -2.6930
  57   0.0000      -0.086073        -2.3422
  58   0.0000      -0.085451        -2.3252

MULLIKEN ATOMIC CHARGES
-----------------------
   0 Cr:    0.573060
   1 C :    0.146712
   2 C :    0.146957
   3 C :    0.146799
   4 C :    0.146970
   5 O :   -0.242330
   6 O :   -0.242327
   7 O :   -0.242337
   8 O :   -0.242347
   9 C :    0.146717
  10 O :   -0.242317
  11 C :    0.146816
  12 O :   -0.242372
Sum of atomic charges:    0.0000000

LOEWDIN ATOMIC CHARGES
----------------------
   0 Cr:   -0.676543
   1 C :   -0.230997
   2 C :   -0.231730
   3 C :   -0.231191
   4 C :   -0.231692
   5 O :    0.344034
   6 O :    0.344084
   7 O :    0.344048
   8 O :    0.344055
   9 C :   -0.230960
  10 O :    0.344081
  11 C :   -0.231185
  12 O :    0.343994

  Mayer bond orders larger than 0.100000
B(  0-Cr,  1-C ) :   0.7463 B(  0-Cr,  2-C ) :   0.7473 B(  0-Cr,  3-C ) :   0.7465
B(  0-Cr,  4-C ) :   0.7473 B(  0-Cr,  9-C ) :   0.7462 B(  0-Cr, 11-C ) :   0.7467
B(  1-C ,  2-C ) :   0.1077 B(  1-C ,  3-C ) :   0.1078 B(  1-C ,  4-C ) :   0.1084
B(  1-C ,  6-O ) :   2.2875 B(  1-C , 11-C ) :   0.1083 B(  2-C ,  3-C ) :   0.1077
B(  2-C ,  7-O ) :   2.2867 B(  2-C ,  9-C ) :   0.1082 B(  2-C , 11-C ) :   0.1086
B(  3-C ,  4-C ) :   0.1085 B(  3-C ,  8-O ) :   2.2872 B(  3-C ,  9-C ) :   0.1082
B(  4-C ,  5-O ) :   2.2868 B(  4-C ,  9-C ) :   0.1079 B(  4-C , 11-C ) :   0.1074
B(  9-C , 10-O ) :   2.2875 B(  9-C , 11-C ) :   0.1078 B( 11-C , 12-O ) :   2.2872

FINAL SINGLE POINT ENERGY     -1717.574109098187

DIPOLE MOMENT
-------------
                                X             Y             Z
Electronic contribution:     -0.00121      -0.00048       0.00078
Nuclear contribution   :      0.00087       0.00051      -0.00066
                        -----------------------------------------
Total Dipole Moment    :     -0.00034       0.00002       0.00012
                        -----------------------------------------
Magnitude (a.u.)       :      0.00036
Magnitude (Debye)      :      0.00093

Rotational constants in cm-1:     0.022283     0.022240     0.022104
Rotational constants in MHz :   668.016885   666.751386   662.674535

                             ****ORCA TERMINATED NORMALLY****
TOTAL RUN TIME: 0 days 0 hours 21 minutes 18 seconds 487 msec
