                         Program Version 4.2.1 -  RELEASE  -
|  1> ! LDA zora-def2-tzvp nori grid5 finalgrid6 verytightscf
|  2> %Pal NProcs 18 End
|  3>
|  4> *xyz 0 1
|  5> Cr -7.024455 2.159906 2.687477
|  6> C -5.745125 2.453969 4.046034
|  7> C -5.747986 1.193764 1.686659
|  8> C -6.493665 3.759856 1.835371
|  9> C -8.300845 3.126754 3.687779
| 10> O -9.070901 3.715082 4.291407
| 11> O -4.974179 2.632342 4.869002
| 12> O -4.977695 0.606824 1.081974
| 13> O -6.176347 4.727975 1.320041
| 14> C -8.304393 1.866232 1.329334
| 15> O -9.076187 1.688738 0.506975
| 16> C -7.553951 0.559352 3.539091
| 17> O -7.868850 -0.410064 4.053526
| 18> **                         ****END OF INPUT****

CARTESIAN COORDINATES (ANGSTROEM)
---------------------------------
  Cr    -7.024455    2.159906    2.687477
  C     -5.745125    2.453969    4.046034
  C     -5.747986    1.193764    1.686659
  C     -6.493665    3.759856    1.835371
  C     -8.300845    3.126754    3.687779
  O     -9.070901    3.715082    4.291407
  O     -4.974179    2.632342    4.869002
  O     -4.977695    0.606824    1.081974
  O     -6.176347    4.727975    1.320041
  C     -8.304393    1.866232    1.329334
  O     -9.076187    1.688738    0.506975
  C     -7.553951    0.559352    3.539091
  O     -7.868850   -0.410064    4.053526

 Total Charge           Charge          ....    0
 Multiplicity           Mult            ....    1
 Number of Electrons    NEL             ....  108
 Basis Dimension        Dim             ....  439

ORBITAL ENERGIES
----------------

  NO   OCC          E(Eh)            E(eV)
   0   2.0000    -213.903050     -5820.5979
   1   2.0000     -24.228845      -659.3004
   2   2.0000     -20.639237      -561.6222
   3   2.0000     -20.639221      -561.6218
   4   2.0000     -20.639148      -561.6198
   5   2.0000     -18.711874      -509.1760
   6   2.0000     -18.711866      -509.1758
   7   2.0000     -18.711830      -509.1748
   8   2.0000     -18.711814      -509.1743
   9   2.0000     -18.711732      -509.1721
  10   2.0000     -18.711727      -509.1720
  11   2.0000      -9.923466      -270.0312
  12   2.0000      -9.923461      -270.0311
  13   2.0000      -9.923428      -270.0302
  14   2.0000      -9.923414      -270.0298
  15   2.0000      -9.923320      -270.0273
  16   2.0000      -9.923317      -270.0272
  17   2.0000      -2.731791       -74.3358
  18   2.0000      -1.737995       -47.2933
  19   2.0000      -1.737889       -47.2904
  20   2.0000      -1.737653       -47.2839
  21   2.0000      -1.063997       -28.9528
  22   2.0000      -1.062952       -28.9244
  23   2.0000      -1.062891       -28.9227
  24   2.0000      -1.062820       -28.9208
  25   2.0000      -1.062482       -28.9116
  26   2.0000      -1.062408       -28.9096
  27   2.0000      -0.568201       -15.4615
  28   2.0000      -0.521196       -14.1825
  29   2.0000      -0.521144       -14.1810
  30   2.0000      -0.520808       -14.1719
  31   2.0000      -0.518121       -14.0988
  32   2.0000      -0.518073       -14.0975
  33   2.0000      -0.465236       -12.6597
  34   2.0000      -0.455556       -12.3963
  35   2.0000      -0.455488       -12.3945
  36   2.0000      -0.455320       -12.3899
  37   2.0000      -0.450050       -12.2465
  38   2.0000      -0.449937       -12.2434
  39   2.0000      -0.449631       -12.2351
  40   2.0000      -0.435905       -11.8616
  41   2.0000      -0.435671       -11.8552
  42   2.0000      -0.435633       -11.8542
  43   2.0000      -0.428582       -11.6623
  44   2.0000      -0.428543       -11.6613
  45   2.0000      -0.428514       -11.6605
  46   2.0000      -0.422161       -11.4876
  47   2.0000      -0.422110       -11.4862
  48   2.0000      -0.381777       -10.3887
  49   2.0000      -0.381626       -10.3846
  50   2.0000      -0.381051       -10.3689
  51   2.0000      -0.248321        -6.7571
  52   2.0000      -0.248245        -6.7551
  53   2.0000      -0.247926        -6.7464
  54   0.0000      -0.098218        -2.6726
  55   0.0000      -0.098042        -2.6679
  56   0.0000      -0.097517        -2.6536
  57   0.0000      -0.083872        -2.2823
  58   0.0000      -0.083250        -2.2654

MULLIKEN ATOMIC CHARGES
-----------------------
   0 Cr:   -0.562664
   1 C :    0.075097
   2 C :    0.075110
   3 C :    0.075144
   4 C :    0.075018
   5 O :    0.018578
   6 O :    0.018817
   7 O :    0.018569
   8 O :    0.018719
   9 C :    0.075065
  10 O :    0.018832
  11 C :    0.075066
  12 O :    0.018650
Sum of atomic charges:    0.0000000

LOEWDIN ATOMIC CHARGES
----------------------
   0 Cr:   -0.856939
   1 C :   -0.169735
   2 C :   -0.170407
   3 C :   -0.169905
   4 C :   -0.170395
   5 O :    0.312805
   6 O :    0.312885
   7 O :    0.312806
   8 O :    0.312842
   9 C :   -0.169709
  10 O :    0.312889
  11 C :   -0.169929
  12 O :    0.312792

  Mayer bond orders larger than 0.100000
B(  0-Cr,  1-C ) :   1.0504 B(  0-Cr,  2-C ) :   1.0510 B(  0-Cr,  3-C ) :   1.0506
B(  0-Cr,  4-C ) :   1.0509 B(  0-Cr,  5-O ) :   0.1200 B(  0-Cr,  6-O ) :   0.1199
B(  0-Cr,  7-O ) :   0.1200 B(  0-Cr,  8-O ) :   0.1199 B(  0-Cr,  9-C ) :   1.0503
B(  0-Cr, 10-O ) :   0.1199 B(  0-Cr, 11-C ) :   1.0506 B(  0-Cr, 12-O ) :   0.1199
B(  1-C ,  6-O ) :   2.2963 B(  2-C ,  7-O ) :   2.2960 B(  3-C ,  8-O ) :   2.2962
B(  4-C ,  5-O ) :   2.2960 B(  9-C , 10-O ) :   2.2964 B( 11-C , 12-O ) :   2.2962

FINAL SINGLE POINT ENERGY     -1717.428360644700

DIPOLE MOMENT
-------------
                                X             Y             Z
Electronic contribution:     -0.00121      -0.00048       0.00078
Nuclear contribution   :      0.00087       0.00051      -0.00066
                        -----------------------------------------
Total Dipole Moment    :     -0.00033       0.00003       0.00012
                        -----------------------------------------
Magnitude (a.u.)       :      0.00035
Magnitude (Debye)      :      0.00090

Rotational constants in cm-1:     0.022283     0.022240     0.022104
Rotational constants in MHz :   668.016885   666.751386   662.674535

                             ****ORCA TERMINATED NORMALLY****
TOTAL RUN TIME: 0 days 0 hours 1 minutes 17 seconds 309 msec
