                         Program Version 4.2.1 -  RELEASE  -
|  1> ! LDA def2-tzvp nori grid5 finalgrid6 verytightscf
|  2> %Pal NProcs 18 End
|  3>
|  4> *xyz 0 1
|  5> Cr -7.024455 2.159906 2.687477
|  6> C -5.745125 2.453969 4.046034
|  7> C -5.747986 1.193764 1.686659
|  8> C -6.493665 3.759856 1.835371
|  9> C -8.300845 3.126754 3.687779
| 10> O -9.070901 3.715082 4.291407
| 11> O -4.974179 2.632342 4.869002
| 12> O -4.977695 0.606824 1.081974
| 13> O -6.176347 4.727975 1.320041
| 14> C -8.304393 1.866232 1.329334
| 15> O -9.076187 1.688738 0.506975
| 16> C -7.553951 0.559352 3.539091
| 17> O -7.868850 -0.410064 4.053526
| 18> **                         ****END OF INPUT****

CARTESIAN COORDINATES (ANGSTROEM)
---------------------------------
  Cr    -7.024455    2.159906    2.687477
  C     -5.745125    2.453969    4.046034
  C     -5.747986    1.193764    1.686659
  C     -6.493665    3.759856    1.835371
  C     -8.300845    3.126754    3.687779
  O     -9.070901    3.715082    4.291407
  O     -4.974179    2.632342    4.869002
  O     -4.977695    0.606824    1.081974
  O     -6.176347    4.727975    1.320041
  C     -8.304393    1.866232    1.329334
  O     -9.076187    1.688738    0.506975
  C     -7.553951    0.559352    3.539091
  O     -7.868850   -0.410064    4.053526

 Total Charge           Charge          ....    0
 Multiplicity           Mult            ....    1
 Number of Electrons    NEL             ....  108
 Basis Dimension        Dim             ....  417

ORBITAL ENERGIES
----------------

  NO   OCC          E(Eh)            E(eV)
   0   2.0000    -213.967087     -5822.3404
   1   2.0000     -24.245896      -659.7644
   2   2.0000     -20.657915      -562.1304
   3   2.0000     -20.657898      -562.1300
   4   2.0000     -20.657824      -562.1280
   5   2.0000     -18.705664      -509.0070
   6   2.0000     -18.705646      -509.0065
   7   2.0000     -18.705618      -509.0057
   8   2.0000     -18.705595      -509.0051
   9   2.0000     -18.705523      -509.0032
  10   2.0000     -18.705506      -509.0027
  11   2.0000      -9.918682      -269.9010
  12   2.0000      -9.918639      -269.8999
  13   2.0000      -9.918630      -269.8996
  14   2.0000      -9.918586      -269.8985
  15   2.0000      -9.918536      -269.8971
  16   2.0000      -9.918485      -269.8957
  17   2.0000      -2.733081       -74.3709
  18   2.0000      -1.738373       -47.3035
  19   2.0000      -1.738266       -47.3006
  20   2.0000      -1.738030       -47.2942
  21   2.0000      -1.063953       -28.9516
  22   2.0000      -1.062906       -28.9232
  23   2.0000      -1.062845       -28.9215
  24   2.0000      -1.062774       -28.9195
  25   2.0000      -1.062434       -28.9103
  26   2.0000      -1.062360       -28.9083
  27   2.0000      -0.568168       -15.4606
  28   2.0000      -0.521195       -14.1824
  29   2.0000      -0.521142       -14.1810
  30   2.0000      -0.520806       -14.1719
  31   2.0000      -0.518082       -14.0977
  32   2.0000      -0.518033       -14.0964
  33   2.0000      -0.465167       -12.6578
  34   2.0000      -0.455516       -12.3952
  35   2.0000      -0.455448       -12.3934
  36   2.0000      -0.455280       -12.3888
  37   2.0000      -0.450028       -12.2459
  38   2.0000      -0.449915       -12.2428
  39   2.0000      -0.449608       -12.2345
  40   2.0000      -0.435865       -11.8605
  41   2.0000      -0.435632       -11.8541
  42   2.0000      -0.435593       -11.8531
  43   2.0000      -0.428540       -11.6612
  44   2.0000      -0.428501       -11.6601
  45   2.0000      -0.428472       -11.6593
  46   2.0000      -0.422052       -11.4846
  47   2.0000      -0.422001       -11.4832
  48   2.0000      -0.381793       -10.3891
  49   2.0000      -0.381641       -10.3850
  50   2.0000      -0.381067       -10.3694
  51   2.0000      -0.248243        -6.7550
  52   2.0000      -0.248167        -6.7530
  53   2.0000      -0.247848        -6.7443
  54   0.0000      -0.098138        -2.6705
  55   0.0000      -0.097962        -2.6657
  56   0.0000      -0.097438        -2.6514
  57   0.0000      -0.083800        -2.2803
  58   0.0000      -0.083178        -2.2634

MULLIKEN ATOMIC CHARGES
-----------------------
   0 Cr:   -0.634386
   1 C :    0.090861
   2 C :    0.090889
   3 C :    0.090922
   4 C :    0.090783
   5 O :    0.014763
   6 O :    0.015004
   7 O :    0.014754
   8 O :    0.014907
   9 C :    0.090827
  10 O :    0.015019
  11 C :    0.090818
  12 O :    0.014838
Sum of atomic charges:   -0.0000000

LOEWDIN ATOMIC CHARGES
----------------------
   0 Cr:   -0.854540
   1 C :   -0.166604
   2 C :   -0.167285
   3 C :   -0.166777
   4 C :   -0.167272
   5 O :    0.309278
   6 O :    0.309358
   7 O :    0.309280
   8 O :    0.309315
   9 C :   -0.166578
  10 O :    0.309361
  11 C :   -0.166802
  12 O :    0.309266

  Mayer bond orders larger than 0.100000
B(  0-Cr,  1-C ) :   1.0717 B(  0-Cr,  2-C ) :   1.0724 B(  0-Cr,  3-C ) :   1.0719
B(  0-Cr,  4-C ) :   1.0723 B(  0-Cr,  5-O ) :   0.1186 B(  0-Cr,  6-O ) :   0.1185
B(  0-Cr,  7-O ) :   0.1186 B(  0-Cr,  8-O ) :   0.1185 B(  0-Cr,  9-C ) :   1.0716
B(  0-Cr, 10-O ) :   0.1184 B(  0-Cr, 11-C ) :   1.0719 B(  0-Cr, 12-O ) :   0.1185
B(  1-C ,  6-O ) :   2.2897 B(  2-C ,  7-O ) :   2.2894 B(  3-C ,  8-O ) :   2.2896
B(  4-C ,  5-O ) :   2.2894 B(  9-C , 10-O ) :   2.2897 B( 11-C , 12-O ) :   2.2895

FINAL SINGLE POINT ENERGY     -1717.487725263825

DIPOLE MOMENT
-------------
                                X             Y             Z
Electronic contribution:     -0.00121      -0.00048       0.00078
Nuclear contribution   :      0.00087       0.00051      -0.00066
                        -----------------------------------------
Total Dipole Moment    :     -0.00033       0.00003       0.00012
                        -----------------------------------------
Magnitude (a.u.)       :      0.00035
Magnitude (Debye)      :      0.00090

Rotational constants in cm-1:     0.022283     0.022240     0.022104
Rotational constants in MHz :   668.016885   666.751386   662.674535

                             ****ORCA TERMINATED NORMALLY****
TOTAL RUN TIME: 0 days 0 hours 1 minutes 16 seconds 642 msec
