                         Program Version 4.2.1 -  RELEASE  -
|  1> ! LDA cc-pvdz nori grid5 finalgrid6 verytightscf
|  2> %Pal NProcs 18 End
|  3>
|  4> *xyz 0 1
|  5> Cr -7.024455 2.159906 2.687477
|  6> C -5.745125 2.453969 4.046034
|  7> C -5.747986 1.193764 1.686659
|  8> C -6.493665 3.759856 1.835371
|  9> C -8.300845 3.126754 3.687779
| 10> O -9.070901 3.715082 4.291407
| 11> O -4.974179 2.632342 4.869002
| 12> O -4.977695 0.606824 1.081974
| 13> O -6.176347 4.727975 1.320041
| 14> C -8.304393 1.866232 1.329334
| 15> O -9.076187 1.688738 0.506975
| 16> C -7.553951 0.559352 3.539091
| 17> O -7.868850 -0.410064 4.053526
| 18> **                         ****END OF INPUT****

CARTESIAN COORDINATES (ANGSTROEM)
---------------------------------
  Cr    -7.024455    2.159906    2.687477
  C     -5.745125    2.453969    4.046034
  C     -5.747986    1.193764    1.686659
  C     -6.493665    3.759856    1.835371
  C     -8.300845    3.126754    3.687779
  O     -9.070901    3.715082    4.291407
  O     -4.974179    2.632342    4.869002
  O     -4.977695    0.606824    1.081974
  O     -6.176347    4.727975    1.320041
  C     -8.304393    1.866232    1.329334
  O     -9.076187    1.688738    0.506975
  C     -7.553951    0.559352    3.539091
  O     -7.868850   -0.410064    4.053526

 Total Charge           Charge          ....    0
 Multiplicity           Mult            ....    1
 Number of Electrons    NEL             ....  108
 Basis Dimension        Dim             ....  211

ORBITAL ENERGIES
----------------

  NO   OCC          E(Eh)            E(eV)
   0   2.0000    -213.953185     -5821.9621
   1   2.0000     -24.237091      -659.5248
   2   2.0000     -20.648613      -561.8773
   3   2.0000     -20.648598      -561.8769
   4   2.0000     -20.648526      -561.8750
   5   2.0000     -18.706040      -509.0172
   6   2.0000     -18.706029      -509.0169
   7   2.0000     -18.705994      -509.0160
   8   2.0000     -18.705975      -509.0155
   9   2.0000     -18.705895      -509.0133
  10   2.0000     -18.705885      -509.0130
  11   2.0000      -9.912312      -269.7277
  12   2.0000      -9.912300      -269.7274
  13   2.0000      -9.912267      -269.7265
  14   2.0000      -9.912239      -269.7257
  15   2.0000      -9.912161      -269.7236
  16   2.0000      -9.912126      -269.7227
  17   2.0000      -2.722250       -74.0762
  18   2.0000      -1.727473       -47.0069
  19   2.0000      -1.727365       -47.0040
  20   2.0000      -1.727119       -46.9973
  21   2.0000      -1.059328       -28.8258
  22   2.0000      -1.058306       -28.7980
  23   2.0000      -1.058243       -28.7963
  24   2.0000      -1.058168       -28.7942
  25   2.0000      -1.057809       -28.7845
  26   2.0000      -1.057733       -28.7824
  27   2.0000      -0.560680       -15.2569
  28   2.0000      -0.513385       -13.9699
  29   2.0000      -0.513330       -13.9684
  30   2.0000      -0.512980       -13.9589
  31   2.0000      -0.510182       -13.8828
  32   2.0000      -0.510132       -13.8814
  33   2.0000      -0.455561       -12.3965
  34   2.0000      -0.445791       -12.1306
  35   2.0000      -0.445720       -12.1287
  36   2.0000      -0.445544       -12.1239
  37   2.0000      -0.440512       -11.9870
  38   2.0000      -0.440397       -11.9838
  39   2.0000      -0.440083       -11.9753
  40   2.0000      -0.425728       -11.5847
  41   2.0000      -0.425492       -11.5782
  42   2.0000      -0.425454       -11.5772
  43   2.0000      -0.418359       -11.3841
  44   2.0000      -0.418319       -11.3830
  45   2.0000      -0.418290       -11.3822
  46   2.0000      -0.412523       -11.2253
  47   2.0000      -0.412474       -11.2240
  48   2.0000      -0.371856       -10.1187
  49   2.0000      -0.371709       -10.1147
  50   2.0000      -0.371140       -10.0992
  51   2.0000      -0.236425        -6.4335
  52   2.0000      -0.236346        -6.4313
  53   2.0000      -0.236019        -6.4224
  54   0.0000      -0.087176        -2.3722
  55   0.0000      -0.086999        -2.3674
  56   0.0000      -0.086474        -2.3531
  57   0.0000      -0.072102        -1.9620
  58   0.0000      -0.071480        -1.9451

MULLIKEN ATOMIC CHARGES
-----------------------
   0 Cr:   -1.062547
   1 C :    0.167090
   2 C :    0.166887
   3 C :    0.167049
   4 C :    0.166866
   5 O :    0.010006
   6 O :    0.010179
   7 O :    0.009998
   8 O :    0.010112
   9 C :    0.167089
  10 O :    0.010190
  11 C :    0.167011
  12 O :    0.010071
Sum of atomic charges:    0.0000000

LOEWDIN ATOMIC CHARGES
----------------------
   0 Cr:   -2.354803
   1 C :    0.166603
   2 C :    0.166158
   3 C :    0.166490
   4 C :    0.166178
   5 O :    0.226006
   6 O :    0.226094
   7 O :    0.226000
   8 O :    0.226048
   9 C :    0.166626
  10 O :    0.226101
  11 C :    0.166488
  12 O :    0.226009

  Mayer bond orders larger than 0.100000
B(  0-Cr,  1-C ) :   1.1912 B(  0-Cr,  2-C ) :   1.1920 B(  0-Cr,  3-C ) :   1.1914
B(  0-Cr,  4-C ) :   1.1919 B(  0-Cr,  5-O ) :   0.1800 B(  0-Cr,  6-O ) :   0.1798
B(  0-Cr,  7-O ) :   0.1800 B(  0-Cr,  8-O ) :   0.1799 B(  0-Cr,  9-C ) :   1.1911
B(  0-Cr, 10-O ) :   0.1798 B(  0-Cr, 11-C ) :   1.1914 B(  0-Cr, 12-O ) :   0.1799
B(  1-C ,  6-O ) :   2.3946 B(  2-C ,  7-O ) :   2.3940 B(  3-C ,  8-O ) :   2.3944
B(  4-C ,  5-O ) :   2.3941 B(  9-C , 10-O ) :   2.3946 B( 11-C , 12-O ) :   2.3943

FINAL SINGLE POINT ENERGY     -1717.242220262564

DIPOLE MOMENT
-------------
                                X             Y             Z
Electronic contribution:     -0.00112      -0.00044       0.00072
Nuclear contribution   :      0.00087       0.00051      -0.00066
                        -----------------------------------------
Total Dipole Moment    :     -0.00025       0.00007       0.00006
                        -----------------------------------------
Magnitude (a.u.)       :      0.00026
Magnitude (Debye)      :      0.00066

Rotational constants in cm-1:     0.022283     0.022240     0.022104
Rotational constants in MHz :   668.016885   666.751386   662.674535

                             ****ORCA TERMINATED NORMALLY****
TOTAL RUN TIME: 0 days 0 hours 5 minutes 35 seconds 330 msec
