                         Program Version 4.2.1 -  RELEASE  -
|  1> ! LDA cc-pv5z nori grid5 finalgrid6 verytightscf
|  2> %Pal NProcs 18 End
|  3>
|  4> *xyz 0 1
|  5> Cr -7.024455 2.159906 2.687477
|  6> C -5.745125 2.453969 4.046034
|  7> C -5.747986 1.193764 1.686659
|  8> C -6.493665 3.759856 1.835371
|  9> C -8.300845 3.126754 3.687779
| 10> O -9.070901 3.715082 4.291407
| 11> O -4.974179 2.632342 4.869002
| 12> O -4.977695 0.606824 1.081974
| 13> O -6.176347 4.727975 1.320041
| 14> C -8.304393 1.866232 1.329334
| 15> O -9.076187 1.688738 0.506975
| 16> C -7.553951 0.559352 3.539091
| 17> O -7.868850 -0.410064 4.053526
| 18> **                         ****END OF INPUT****

CARTESIAN COORDINATES (ANGSTROEM)
---------------------------------
  Cr    -7.024455    2.159906    2.687477
  C     -5.745125    2.453969    4.046034
  C     -5.747986    1.193764    1.686659
  C     -6.493665    3.759856    1.835371
  C     -8.300845    3.126754    3.687779
  O     -9.070901    3.715082    4.291407
  O     -4.974179    2.632342    4.869002
  O     -4.977695    0.606824    1.081974
  O     -6.176347    4.727975    1.320041
  C     -8.304393    1.866232    1.329334
  O     -9.076187    1.688738    0.506975
  C     -7.553951    0.559352    3.539091
  O     -7.868850   -0.410064    4.053526

 Total Charge           Charge          ....    0
 Multiplicity           Mult            ....    1
 Number of Electrons    NEL             ....  108
 Basis Dimension        Dim             .... 1245

ORBITAL ENERGIES
----------------

  NO   OCC          E(Eh)            E(eV)
   0   2.0000    -213.956566     -5822.0541
   1   2.0000     -24.226641      -659.2404
   2   2.0000     -20.637654      -561.5791
   3   2.0000     -20.637639      -561.5787
   4   2.0000     -20.637569      -561.5768
   5   2.0000     -18.704562      -508.9770
   6   2.0000     -18.704555      -508.9768
   7   2.0000     -18.704518      -508.9758
   8   2.0000     -18.704503      -508.9754
   9   2.0000     -18.704421      -508.9732
  10   2.0000     -18.704416      -508.9730
  11   2.0000      -9.920067      -269.9387
  12   2.0000      -9.920063      -269.9386
  13   2.0000      -9.920029      -269.9377
  14   2.0000      -9.920016      -269.9374
  15   2.0000      -9.919921      -269.9348
  16   2.0000      -9.919920      -269.9347
  17   2.0000      -2.731594       -74.3305
  18   2.0000      -1.737655       -47.2840
  19   2.0000      -1.737554       -47.2812
  20   2.0000      -1.737330       -47.2752
  21   2.0000      -1.064426       -28.9645
  22   2.0000      -1.063379       -28.9360
  23   2.0000      -1.063318       -28.9344
  24   2.0000      -1.063247       -28.9324
  25   2.0000      -1.062907       -28.9232
  26   2.0000      -1.062833       -28.9212
  27   2.0000      -0.569002       -15.4833
  28   2.0000      -0.522147       -14.2084
  29   2.0000      -0.522096       -14.2069
  30   2.0000      -0.521762       -14.1979
  31   2.0000      -0.519086       -14.1250
  32   2.0000      -0.519037       -14.1237
  33   2.0000      -0.465984       -12.6801
  34   2.0000      -0.456347       -12.4178
  35   2.0000      -0.456280       -12.4160
  36   2.0000      -0.456113       -12.4115
  37   2.0000      -0.450824       -12.2675
  38   2.0000      -0.450712       -12.2645
  39   2.0000      -0.450407       -12.2562
  40   2.0000      -0.436750       -11.8846
  41   2.0000      -0.436517       -11.8782
  42   2.0000      -0.436478       -11.8772
  43   2.0000      -0.429402       -11.6846
  44   2.0000      -0.429364       -11.6836
  45   2.0000      -0.429335       -11.6828
  46   2.0000      -0.422792       -11.5048
  47   2.0000      -0.422741       -11.5034
  48   2.0000      -0.382467       -10.4075
  49   2.0000      -0.382316       -10.4034
  50   2.0000      -0.381742       -10.3877
  51   2.0000      -0.249299        -6.7838
  52   2.0000      -0.249226        -6.7818
  53   2.0000      -0.248913        -6.7733
  54   0.0000      -0.099556        -2.7091
  55   0.0000      -0.099379        -2.7042
  56   0.0000      -0.098849        -2.6898
  57   0.0000      -0.085883        -2.3370
  58   0.0000      -0.085262        -2.3201

MULLIKEN ATOMIC CHARGES
-----------------------
   0 Cr:   -0.705398
   1 C :    0.286421
   2 C :    0.286545
   3 C :    0.286479
   4 C :    0.286569
   5 O :   -0.168976
   6 O :   -0.168876
   7 O :   -0.168939
   8 O :   -0.168904
   9 C :    0.286423
  10 O :   -0.168882
  11 C :    0.286515
  12 O :   -0.168976
Sum of atomic charges:    0.0000000

LOEWDIN ATOMIC CHARGES
----------------------
   0 Cr:    0.245998
   1 C :   -0.701203
   2 C :   -0.703302
   3 C :   -0.701753
   4 C :   -0.703265
   5 O :    0.661127
   6 O :    0.661079
   7 O :    0.661139
   8 O :    0.661075
   9 C :   -0.701123
  10 O :    0.661073
  11 C :   -0.701871
  12 O :    0.661026

  Mayer bond orders larger than 0.100000
B(  0-Cr,  1-C ) :   1.1148 B(  0-Cr,  2-C ) :   1.1156 B(  0-Cr,  3-C ) :   1.1151
B(  0-Cr,  4-C ) :   1.1156 B(  0-Cr,  5-O ) :   0.1155 B(  0-Cr,  6-O ) :   0.1153
B(  0-Cr,  7-O ) :   0.1155 B(  0-Cr,  8-O ) :   0.1154 B(  0-Cr,  9-C ) :   1.1148
B(  0-Cr, 10-O ) :   0.1153 B(  0-Cr, 11-C ) :   1.1152 B(  0-Cr, 12-O ) :   0.1154
B(  1-C ,  6-O ) :   2.3452 B(  2-C ,  7-O ) :   2.3449 B(  3-C ,  8-O ) :   2.3451
B(  4-C ,  5-O ) :   2.3449 B(  9-C , 10-O ) :   2.3453 B( 11-C , 12-O ) :   2.3450

FINAL SINGLE POINT ENERGY     -1717.568668196076

DIPOLE MOMENT
-------------
                                X             Y             Z
Electronic contribution:     -0.00121      -0.00048       0.00078
Nuclear contribution   :      0.00087       0.00051      -0.00066
                        -----------------------------------------
Total Dipole Moment    :     -0.00034       0.00002       0.00012
                        -----------------------------------------
Magnitude (a.u.)       :      0.00036
Magnitude (Debye)      :      0.00092

Rotational constants in cm-1:     0.022283     0.022240     0.022104
Rotational constants in MHz :   668.016885   666.751386   662.674535

                             ****ORCA TERMINATED NORMALLY****
TOTAL RUN TIME: 0 days 6 hours 50 minutes 7 seconds 621 msec
