                         Program Version 4.2.1 -  RELEASE  -
|  1> ! LDA def2-qzvpp nori grid5 finalgrid6 verytightscf
|  2> %Pal NProcs 18 End
|  3>
|  4> *xyz 0 1
|  5> Cr -7.024455 2.159906 2.687477
|  6> C -5.745125 2.453969 4.046034
|  7> C -5.747986 1.193764 1.686659
|  8> C -6.493665 3.759856 1.835371
|  9> C -8.300845 3.126754 3.687779
| 10> O -9.070901 3.715082 4.291407
| 11> O -4.974179 2.632342 4.869002
| 12> O -4.977695 0.606824 1.081974
| 13> O -6.176347 4.727975 1.320041
| 14> C -8.304393 1.866232 1.329334
| 15> O -9.076187 1.688738 0.506975
| 16> C -7.553951 0.559352 3.539091
| 17> O -7.868850 -0.410064 4.053526
| 18> **                         ****END OF INPUT****

CARTESIAN COORDINATES (ANGSTROEM)
---------------------------------
  Cr    -7.024455    2.159906    2.687477
  C     -5.745125    2.453969    4.046034
  C     -5.747986    1.193764    1.686659
  C     -6.493665    3.759856    1.835371
  C     -8.300845    3.126754    3.687779
  O     -9.070901    3.715082    4.291407
  O     -4.974179    2.632342    4.869002
  O     -4.977695    0.606824    1.081974
  O     -6.176347    4.727975    1.320041
  C     -8.304393    1.866232    1.329334
  O     -9.076187    1.688738    0.506975
  C     -7.553951    0.559352    3.539091
  O     -7.868850   -0.410064    4.053526

 Total Charge           Charge          ....    0
 Multiplicity           Mult            ....    1
 Number of Electrons    NEL             ....  108
 Basis Dimension        Dim             ....  777

ORBITAL ENERGIES
----------------

  NO   OCC          E(Eh)            E(eV)
   0   2.0000    -214.001199     -5823.2687
   1   2.0000     -24.242867      -659.6820
   2   2.0000     -20.654206      -562.0295
   3   2.0000     -20.654191      -562.0291
   4   2.0000     -20.654119      -562.0271
   5   2.0000     -18.707395      -509.0541
   6   2.0000     -18.707389      -509.0539
   7   2.0000     -18.707351      -509.0529
   8   2.0000     -18.707336      -509.0525
   9   2.0000     -18.707254      -509.0503
  10   2.0000     -18.707250      -509.0501
  11   2.0000      -9.921402      -269.9751
  12   2.0000      -9.921398      -269.9750
  13   2.0000      -9.921364      -269.9740
  14   2.0000      -9.921351      -269.9737
  15   2.0000      -9.921256      -269.9711
  16   2.0000      -9.921255      -269.9711
  17   2.0000      -2.732466       -74.3542
  18   2.0000      -1.737674       -47.2845
  19   2.0000      -1.737572       -47.2817
  20   2.0000      -1.737348       -47.2756
  21   2.0000      -1.064395       -28.9637
  22   2.0000      -1.063346       -28.9351
  23   2.0000      -1.063285       -28.9335
  24   2.0000      -1.063213       -28.9315
  25   2.0000      -1.062874       -28.9223
  26   2.0000      -1.062800       -28.9203
  27   2.0000      -0.568889       -15.4803
  28   2.0000      -0.522033       -14.2053
  29   2.0000      -0.521981       -14.2038
  30   2.0000      -0.521647       -14.1947
  31   2.0000      -0.518943       -14.1212
  32   2.0000      -0.518895       -14.1198
  33   2.0000      -0.465835       -12.6760
  34   2.0000      -0.456166       -12.4129
  35   2.0000      -0.456099       -12.4111
  36   2.0000      -0.455933       -12.4066
  37   2.0000      -0.450669       -12.2633
  38   2.0000      -0.450556       -12.2603
  39   2.0000      -0.450251       -12.2520
  40   2.0000      -0.436578       -11.8799
  41   2.0000      -0.436345       -11.8736
  42   2.0000      -0.436307       -11.8725
  43   2.0000      -0.429237       -11.6801
  44   2.0000      -0.429199       -11.6791
  45   2.0000      -0.429170       -11.6783
  46   2.0000      -0.422534       -11.4977
  47   2.0000      -0.422483       -11.4963
  48   2.0000      -0.382328       -10.4037
  49   2.0000      -0.382177       -10.3996
  50   2.0000      -0.381603       -10.3839
  51   2.0000      -0.249038        -6.7767
  52   2.0000      -0.248964        -6.7747
  53   2.0000      -0.248652        -6.7662
  54   0.0000      -0.099345        -2.7033
  55   0.0000      -0.099168        -2.6985
  56   0.0000      -0.098640        -2.6841
  57   0.0000      -0.085614        -2.3297
  58   0.0000      -0.084993        -2.3128

MULLIKEN ATOMIC CHARGES
-----------------------
   0 Cr:    0.813910
   1 C :   -0.048801
   2 C :   -0.048750
   3 C :   -0.048764
   4 C :   -0.048848
   5 O :   -0.086894
   6 O :   -0.086770
   7 O :   -0.086904
   8 O :   -0.086824
   9 C :   -0.048820
  10 O :   -0.086756
  11 C :   -0.048913
  12 O :   -0.086866
Sum of atomic charges:    0.0000000

LOEWDIN ATOMIC CHARGES
----------------------
   0 Cr:   -1.374320
   1 C :   -0.259676
   2 C :   -0.260463
   3 C :   -0.259882
   4 C :   -0.260430
   5 O :    0.489041
   6 O :    0.489080
   7 O :    0.489047
   8 O :    0.489050
   9 C :   -0.259638
  10 O :    0.489081
  11 C :   -0.259889
  12 O :    0.488999

  Mayer bond orders larger than 0.100000
B(  0-Cr,  1-C ) :   0.8572 B(  0-Cr,  2-C ) :   0.8591 B(  0-Cr,  3-C ) :   0.8577
B(  0-Cr,  4-C ) :   0.8589 B(  0-Cr,  9-C ) :   0.8571 B(  0-Cr, 11-C ) :   0.8577
B(  1-C ,  2-C ) :   0.1116 B(  1-C ,  3-C ) :   0.1117 B(  1-C ,  4-C ) :   0.1124
B(  1-C ,  6-O ) :   2.2735 B(  1-C , 11-C ) :   0.1123 B(  2-C ,  3-C ) :   0.1116
B(  2-C ,  7-O ) :   2.2732 B(  2-C ,  9-C ) :   0.1123 B(  2-C , 11-C ) :   0.1126
B(  3-C ,  4-C ) :   0.1125 B(  3-C ,  8-O ) :   2.2734 B(  3-C ,  9-C ) :   0.1122
B(  4-C ,  5-O ) :   2.2732 B(  4-C ,  9-C ) :   0.1117 B(  4-C , 11-C ) :   0.1114
B(  9-C , 10-O ) :   2.2735 B(  9-C , 11-C ) :   0.1117 B( 11-C , 12-O ) :   2.2734

FINAL SINGLE POINT ENERGY     -1717.562076746459

DIPOLE MOMENT
-------------
                                X             Y             Z
Electronic contribution:     -0.00121      -0.00048       0.00078
Nuclear contribution   :      0.00087       0.00051      -0.00066
                        -----------------------------------------
Total Dipole Moment    :     -0.00034       0.00002       0.00012
                        -----------------------------------------
Magnitude (a.u.)       :      0.00036
Magnitude (Debye)      :      0.00092

Rotational constants in cm-1:     0.022283     0.022240     0.022104
Rotational constants in MHz :   668.016885   666.751386   662.674535

                             ****ORCA TERMINATED NORMALLY****
TOTAL RUN TIME: 0 days 0 hours 11 minutes 27 seconds 410 msec
