                         Program Version 4.2.1 -  RELEASE  -
|  1> ! LDA cc-pvqz nori grid5 finalgrid6 verytightscf
|  2> %Pal NProcs 18 End
|  3>
|  4> *xyz 0 1
|  5> Cr -7.024455 2.159906 2.687477
|  6> C -5.745125 2.453969 4.046034
|  7> C -5.747986 1.193764 1.686659
|  8> C -6.493665 3.759856 1.835371
|  9> C -8.300845 3.126754 3.687779
| 10> O -9.070901 3.715082 4.291407
| 11> O -4.974179 2.632342 4.869002
| 12> O -4.977695 0.606824 1.081974
| 13> O -6.176347 4.727975 1.320041
| 14> C -8.304393 1.866232 1.329334
| 15> O -9.076187 1.688738 0.506975
| 16> C -7.553951 0.559352 3.539091
| 17> O -7.868850 -0.410064 4.053526
| 18> **                         ****END OF INPUT****

CARTESIAN COORDINATES (ANGSTROEM)
---------------------------------
  Cr    -7.024455    2.159906    2.687477
  C     -5.745125    2.453969    4.046034
  C     -5.747986    1.193764    1.686659
  C     -6.493665    3.759856    1.835371
  C     -8.300845    3.126754    3.687779
  O     -9.070901    3.715082    4.291407
  O     -4.974179    2.632342    4.869002
  O     -4.977695    0.606824    1.081974
  O     -6.176347    4.727975    1.320041
  C     -8.304393    1.866232    1.329334
  O     -9.076187    1.688738    0.506975
  C     -7.553951    0.559352    3.539091
  O     -7.868850   -0.410064    4.053526

 Total Charge           Charge          ....    0
 Multiplicity           Mult            ....    1
 Number of Electrons    NEL             ....  108
 Basis Dimension        Dim             ....  764

ORBITAL ENERGIES
----------------

  NO   OCC          E(Eh)            E(eV)
   0   2.0000    -213.958300     -5822.1013
   1   2.0000     -24.229753      -659.3251
   2   2.0000     -20.641046      -561.6714
   3   2.0000     -20.641030      -561.6710
   4   2.0000     -20.640958      -561.6690
   5   2.0000     -18.702341      -508.9166
   6   2.0000     -18.702334      -508.9164
   7   2.0000     -18.702297      -508.9154
   8   2.0000     -18.702282      -508.9150
   9   2.0000     -18.702199      -508.9127
  10   2.0000     -18.702195      -508.9126
  11   2.0000      -9.917920      -269.8803
  12   2.0000      -9.917916      -269.8802
  13   2.0000      -9.917882      -269.8793
  14   2.0000      -9.917869      -269.8789
  15   2.0000      -9.917774      -269.8763
  16   2.0000      -9.917773      -269.8763
  17   2.0000      -2.730953       -74.3130
  18   2.0000      -1.736664       -47.2570
  19   2.0000      -1.736561       -47.2542
  20   2.0000      -1.736336       -47.2481
  21   2.0000      -1.064144       -28.9568
  22   2.0000      -1.063097       -28.9283
  23   2.0000      -1.063036       -28.9267
  24   2.0000      -1.062965       -28.9247
  25   2.0000      -1.062627       -28.9155
  26   2.0000      -1.062553       -28.9135
  27   2.0000      -0.568529       -15.4705
  28   2.0000      -0.521698       -14.1961
  29   2.0000      -0.521647       -14.1947
  30   2.0000      -0.521313       -14.1856
  31   2.0000      -0.518627       -14.1126
  32   2.0000      -0.518579       -14.1112
  33   2.0000      -0.465455       -12.6657
  34   2.0000      -0.455825       -12.4036
  35   2.0000      -0.455758       -12.4018
  36   2.0000      -0.455591       -12.3973
  37   2.0000      -0.450308       -12.2535
  38   2.0000      -0.450195       -12.2504
  39   2.0000      -0.449890       -12.2421
  40   2.0000      -0.436220       -11.8702
  41   2.0000      -0.435987       -11.8638
  42   2.0000      -0.435948       -11.8628
  43   2.0000      -0.428878       -11.6704
  44   2.0000      -0.428840       -11.6693
  45   2.0000      -0.428811       -11.6685
  46   2.0000      -0.422178       -11.4881
  47   2.0000      -0.422128       -11.4867
  48   2.0000      -0.381879       -10.3914
  49   2.0000      -0.381728       -10.3873
  50   2.0000      -0.381154       -10.3717
  51   2.0000      -0.248628        -6.7655
  52   2.0000      -0.248554        -6.7635
  53   2.0000      -0.248240        -6.7549
  54   0.0000      -0.098694        -2.6856
  55   0.0000      -0.098517        -2.6808
  56   0.0000      -0.097987        -2.6664
  57   0.0000      -0.084795        -2.3074
  58   0.0000      -0.084174        -2.2905

MULLIKEN ATOMIC CHARGES
-----------------------
   0 Cr:   -0.645538
   1 C :    0.223613
   2 C :    0.223857
   3 C :    0.223658
   4 C :    0.223844
   5 O :   -0.116218
   6 O :   -0.116026
   7 O :   -0.116213
   8 O :   -0.116083
   9 C :    0.223597
  10 O :   -0.116018
  11 C :    0.223676
  12 O :   -0.116148
Sum of atomic charges:    0.0000000

LOEWDIN ATOMIC CHARGES
----------------------
   0 Cr:   -0.511835
   1 C :   -0.471721
   2 C :   -0.473124
   3 C :   -0.472084
   4 C :   -0.473094
   5 O :    0.557613
   6 O :    0.557637
   7 O :    0.557617
   8 O :    0.557609
   9 C :   -0.471664
  10 O :    0.557637
  11 C :   -0.472152
  12 O :    0.557560

  Mayer bond orders larger than 0.100000
B(  0-Cr,  1-C ) :   1.0657 B(  0-Cr,  2-C ) :   1.0663 B(  0-Cr,  3-C ) :   1.0659
B(  0-Cr,  4-C ) :   1.0663 B(  0-Cr,  5-O ) :   0.1423 B(  0-Cr,  6-O ) :   0.1422
B(  0-Cr,  7-O ) :   0.1423 B(  0-Cr,  8-O ) :   0.1423 B(  0-Cr,  9-C ) :   1.0656
B(  0-Cr, 10-O ) :   0.1422 B(  0-Cr, 11-C ) :   1.0660 B(  0-Cr, 12-O ) :   0.1422
B(  1-C ,  6-O ) :   2.2614 B(  2-C ,  7-O ) :   2.2610 B(  3-C ,  8-O ) :   2.2613
B(  4-C ,  5-O ) :   2.2610 B(  9-C , 10-O ) :   2.2614 B( 11-C , 12-O ) :   2.2612

FINAL SINGLE POINT ENERGY     -1717.547510107941

DIPOLE MOMENT
-------------
                                X             Y             Z
Electronic contribution:     -0.00121      -0.00048       0.00078
Nuclear contribution   :      0.00087       0.00051      -0.00066
                        -----------------------------------------
Total Dipole Moment    :     -0.00034       0.00002       0.00012
                        -----------------------------------------
Magnitude (a.u.)       :      0.00036
Magnitude (Debye)      :      0.00091

Rotational constants in cm-1:     0.022283     0.022240     0.022104
Rotational constants in MHz :   668.016885   666.751386   662.674535

                             ****ORCA TERMINATED NORMALLY****
TOTAL RUN TIME: 0 days 1 hours 23 minutes 56 seconds 987 msec
