                         Program Version 4.2.1 -  RELEASE  -
|  1> ! LDA pc-2 nori grid5 finalgrid6 verytightscf
|  2> %Pal NProcs 18 End
|  3>
|  4> *xyz 0 1
|  5> Cr -7.024455 2.159906 2.687477
|  6> C -5.745125 2.453969 4.046034
|  7> C -5.747986 1.193764 1.686659
|  8> C -6.493665 3.759856 1.835371
|  9> C -8.300845 3.126754 3.687779
| 10> O -9.070901 3.715082 4.291407
| 11> O -4.974179 2.632342 4.869002
| 12> O -4.977695 0.606824 1.081974
| 13> O -6.176347 4.727975 1.320041
| 14> C -8.304393 1.866232 1.329334
| 15> O -9.076187 1.688738 0.506975
| 16> C -7.553951 0.559352 3.539091
| 17> O -7.868850 -0.410064 4.053526
| 18> **                         ****END OF INPUT****

CARTESIAN COORDINATES (ANGSTROEM)
---------------------------------
  Cr    -7.024455    2.159906    2.687477
  C     -5.745125    2.453969    4.046034
  C     -5.747986    1.193764    1.686659
  C     -6.493665    3.759856    1.835371
  C     -8.300845    3.126754    3.687779
  O     -9.070901    3.715082    4.291407
  O     -4.974179    2.632342    4.869002
  O     -4.977695    0.606824    1.081974
  O     -6.176347    4.727975    1.320041
  C     -8.304393    1.866232    1.329334
  O     -9.076187    1.688738    0.506975
  C     -7.553951    0.559352    3.539091
  O     -7.868850   -0.410064    4.053526

 Total Charge           Charge          ....    0
 Multiplicity           Mult            ....    1
 Number of Electrons    NEL             ....  108
 Basis Dimension        Dim             ....  416

ORBITAL ENERGIES
----------------

  NO   OCC          E(Eh)            E(eV)
   0   2.0000    -213.918121     -5821.0080
   1   2.0000     -24.223250      -659.1481
   2   2.0000     -20.630818      -561.3931
   3   2.0000     -20.630802      -561.3927
   4   2.0000     -20.630727      -561.3906
   5   2.0000     -18.690516      -508.5948
   6   2.0000     -18.690504      -508.5945
   7   2.0000     -18.690470      -508.5936
   8   2.0000     -18.690453      -508.5931
   9   2.0000     -18.690374      -508.5909
  10   2.0000     -18.690365      -508.5907
  11   2.0000      -9.908770      -269.6313
  12   2.0000      -9.908751      -269.6308
  13   2.0000      -9.908719      -269.6299
  14   2.0000      -9.908706      -269.6296
  15   2.0000      -9.908613      -269.6271
  16   2.0000      -9.908604      -269.6268
  17   2.0000      -2.731612       -74.3309
  18   2.0000      -1.737672       -47.2845
  19   2.0000      -1.737568       -47.2816
  20   2.0000      -1.737338       -47.2754
  21   2.0000      -1.065233       -28.9865
  22   2.0000      -1.064180       -28.9578
  23   2.0000      -1.064119       -28.9562
  24   2.0000      -1.064048       -28.9542
  25   2.0000      -1.063714       -28.9451
  26   2.0000      -1.063641       -28.9431
  27   2.0000      -0.569245       -15.4900
  28   2.0000      -0.522263       -14.2115
  29   2.0000      -0.522211       -14.2101
  30   2.0000      -0.521874       -14.2009
  31   2.0000      -0.519194       -14.1280
  32   2.0000      -0.519146       -14.1267
  33   2.0000      -0.466282       -12.6882
  34   2.0000      -0.456815       -12.4306
  35   2.0000      -0.456747       -12.4287
  36   2.0000      -0.456578       -12.4241
  37   2.0000      -0.451239       -12.2788
  38   2.0000      -0.451125       -12.2757
  39   2.0000      -0.450817       -12.2673
  40   2.0000      -0.437157       -11.8956
  41   2.0000      -0.436923       -11.8893
  42   2.0000      -0.436884       -11.8882
  43   2.0000      -0.429803       -11.6955
  44   2.0000      -0.429765       -11.6945
  45   2.0000      -0.429736       -11.6937
  46   2.0000      -0.423272       -11.5178
  47   2.0000      -0.423221       -11.5164
  48   2.0000      -0.382729       -10.4146
  49   2.0000      -0.382577       -10.4104
  50   2.0000      -0.382000       -10.3948
  51   2.0000      -0.249816        -6.7978
  52   2.0000      -0.249741        -6.7958
  53   2.0000      -0.249423        -6.7872
  54   0.0000      -0.099578        -2.7097
  55   0.0000      -0.099403        -2.7049
  56   0.0000      -0.098879        -2.6906
  57   0.0000      -0.085254        -2.3199
  58   0.0000      -0.084628        -2.3028

MULLIKEN ATOMIC CHARGES
-----------------------
   0 Cr:   -1.026790
   1 C :    0.280717
   2 C :    0.281170
   3 C :    0.280882
   4 C :    0.281075
   5 O :   -0.109872
   6 O :   -0.109642
   7 O :   -0.109882
   8 O :   -0.109726
   9 C :    0.280675
  10 O :   -0.109628
  11 C :    0.280794
  12 O :   -0.109774
Sum of atomic charges:   -0.0000000

LOEWDIN ATOMIC CHARGES
----------------------
   0 Cr:   -1.316969
   1 C :    0.050348
   2 C :    0.049895
   3 C :    0.050232
   4 C :    0.049909
   5 O :    0.169287
   6 O :    0.169389
   7 O :    0.169288
   8 O :    0.169341
   9 C :    0.050366
  10 O :    0.169394
  11 C :    0.050228
  12 O :    0.169292

  Mayer bond orders larger than 0.100000
B(  0-Cr,  1-C ) :   1.0838 B(  0-Cr,  2-C ) :   1.0847 B(  0-Cr,  3-C ) :   1.0840
B(  0-Cr,  4-C ) :   1.0847 B(  0-Cr,  5-O ) :   0.1138 B(  0-Cr,  6-O ) :   0.1137
B(  0-Cr,  7-O ) :   0.1138 B(  0-Cr,  8-O ) :   0.1137 B(  0-Cr,  9-C ) :   1.0837
B(  0-Cr, 10-O ) :   0.1136 B(  0-Cr, 11-C ) :   1.0841 B(  0-Cr, 12-O ) :   0.1137
B(  1-C ,  6-O ) :   2.3121 B(  2-C ,  7-O ) :   2.3115 B(  3-C ,  8-O ) :   2.3119
B(  4-C ,  5-O ) :   2.3116 B(  9-C , 10-O ) :   2.3121 B( 11-C , 12-O ) :   2.3118

FINAL SINGLE POINT ENERGY     -1717.522790242265

DIPOLE MOMENT
-------------
                                X             Y             Z
Electronic contribution:     -0.00121      -0.00048       0.00078
Nuclear contribution   :      0.00087       0.00051      -0.00066
                        -----------------------------------------
Total Dipole Moment    :     -0.00034       0.00003       0.00012
                        -----------------------------------------
Magnitude (a.u.)       :      0.00036
Magnitude (Debye)      :      0.00090

Rotational constants in cm-1:     0.022283     0.022240     0.022104
Rotational constants in MHz :   668.016885   666.751386   662.674535

                             ****ORCA TERMINATED NORMALLY****
TOTAL RUN TIME: 0 days 0 hours 2 minutes 15 seconds 277 msec
