                         Program Version 4.2.1 -  RELEASE  -
|  1> ! LDA pc-1 nori grid5 finalgrid6 verytightscf
|  2> %Pal NProcs 18 End
|  3>
|  4> *xyz 0 1
|  5> Cr -7.024455 2.159906 2.687477
|  6> C -5.745125 2.453969 4.046034
|  7> C -5.747986 1.193764 1.686659
|  8> C -6.493665 3.759856 1.835371
|  9> C -8.300845 3.126754 3.687779
| 10> O -9.070901 3.715082 4.291407
| 11> O -4.974179 2.632342 4.869002
| 12> O -4.977695 0.606824 1.081974
| 13> O -6.176347 4.727975 1.320041
| 14> C -8.304393 1.866232 1.329334
| 15> O -9.076187 1.688738 0.506975
| 16> C -7.553951 0.559352 3.539091
| 17> O -7.868850 -0.410064 4.053526
| 18> **                         ****END OF INPUT****

CARTESIAN COORDINATES (ANGSTROEM)
---------------------------------
  Cr    -7.024455    2.159906    2.687477
  C     -5.745125    2.453969    4.046034
  C     -5.747986    1.193764    1.686659
  C     -6.493665    3.759856    1.835371
  C     -8.300845    3.126754    3.687779
  O     -9.070901    3.715082    4.291407
  O     -4.974179    2.632342    4.869002
  O     -4.977695    0.606824    1.081974
  O     -6.176347    4.727975    1.320041
  C     -8.304393    1.866232    1.329334
  O     -9.076187    1.688738    0.506975
  C     -7.553951    0.559352    3.539091
  O     -7.868850   -0.410064    4.053526

 Total Charge           Charge          ....    0
 Multiplicity           Mult            ....    1
 Number of Electrons    NEL             ....  108
 Basis Dimension        Dim             ....  199

ORBITAL ENERGIES
----------------

  NO   OCC          E(Eh)            E(eV)
   0   2.0000    -213.886452     -5820.1463
   1   2.0000     -24.211504      -658.8285
   2   2.0000     -20.620208      -561.1044
   3   2.0000     -20.620191      -561.1039
   4   2.0000     -20.620115      -561.1019
   5   2.0000     -18.694229      -508.6958
   6   2.0000     -18.694174      -508.6943
   7   2.0000     -18.694160      -508.6940
   8   2.0000     -18.694122      -508.6929
   9   2.0000     -18.694064      -508.6913
  10   2.0000     -18.694030      -508.6904
  11   2.0000      -9.912724      -269.7389
  12   2.0000      -9.912698      -269.7382
  13   2.0000      -9.912680      -269.7377
  14   2.0000      -9.912648      -269.7369
  15   2.0000      -9.912574      -269.7348
  16   2.0000      -9.912545      -269.7341
  17   2.0000      -2.730438       -74.2990
  18   2.0000      -1.736925       -47.2641
  19   2.0000      -1.736810       -47.2610
  20   2.0000      -1.736553       -47.2540
  21   2.0000      -1.070697       -29.1351
  22   2.0000      -1.069563       -29.1043
  23   2.0000      -1.069502       -29.1026
  24   2.0000      -1.069428       -29.1006
  25   2.0000      -1.069233       -29.0953
  26   2.0000      -1.069158       -29.0933
  27   2.0000      -0.569578       -15.4990
  28   2.0000      -0.522546       -14.2192
  29   2.0000      -0.522493       -14.2177
  30   2.0000      -0.522150       -14.2084
  31   2.0000      -0.519625       -14.1397
  32   2.0000      -0.519576       -14.1384
  33   2.0000      -0.465984       -12.6801
  34   2.0000      -0.456245       -12.4151
  35   2.0000      -0.456176       -12.4132
  36   2.0000      -0.456002       -12.4084
  37   2.0000      -0.450685       -12.2638
  38   2.0000      -0.450567       -12.2605
  39   2.0000      -0.450247       -12.2518
  40   2.0000      -0.436573       -11.8798
  41   2.0000      -0.436336       -11.8733
  42   2.0000      -0.436297       -11.8722
  43   2.0000      -0.429348       -11.6832
  44   2.0000      -0.429308       -11.6821
  45   2.0000      -0.429279       -11.6813
  46   2.0000      -0.422800       -11.5050
  47   2.0000      -0.422747       -11.5035
  48   2.0000      -0.381730       -10.3874
  49   2.0000      -0.381573       -10.3831
  50   2.0000      -0.380985       -10.3671
  51   2.0000      -0.248919        -6.7734
  52   2.0000      -0.248837        -6.7712
  53   2.0000      -0.248498        -6.7620
  54   0.0000      -0.096520        -2.6264
  55   0.0000      -0.096350        -2.6218
  56   0.0000      -0.095849        -2.6082
  57   0.0000      -0.080054        -2.1784
  58   0.0000      -0.079458        -2.1622

MULLIKEN ATOMIC CHARGES
-----------------------
   0 Cr:   -1.788136
   1 C :    0.407088
   2 C :    0.407269
   3 C :    0.407130
   4 C :    0.407246
   5 O :   -0.109235
   6 O :   -0.109041
   7 O :   -0.109235
   8 O :   -0.109106
   9 C :    0.407069
  10 O :   -0.109032
  11 C :    0.407140
  12 O :   -0.109157
Sum of atomic charges:   -0.0000000

LOEWDIN ATOMIC CHARGES
----------------------
   0 Cr:   -1.759677
   1 C :    0.246571
   2 C :    0.246292
   3 C :    0.246501
   4 C :    0.246291
   5 O :    0.046745
   6 O :    0.046907
   7 O :    0.046739
   8 O :    0.046843
   9 C :    0.246579
  10 O :    0.046918
  11 C :    0.246490
  12 O :    0.046801

  Mayer bond orders larger than 0.100000
B(  0-Cr,  1-C ) :   1.1753 B(  0-Cr,  2-C ) :   1.1760 B(  0-Cr,  3-C ) :   1.1755
B(  0-Cr,  4-C ) :   1.1760 B(  0-Cr,  5-O ) :   0.1144 B(  0-Cr,  6-O ) :   0.1143
B(  0-Cr,  7-O ) :   0.1144 B(  0-Cr,  8-O ) :   0.1143 B(  0-Cr,  9-C ) :   1.1752
B(  0-Cr, 10-O ) :   0.1143 B(  0-Cr, 11-C ) :   1.1756 B(  0-Cr, 12-O ) :   0.1143
B(  1-C ,  6-O ) :   2.3831 B(  2-C ,  7-O ) :   2.3828 B(  3-C ,  8-O ) :   2.3830
B(  4-C ,  5-O ) :   2.3828 B(  9-C , 10-O ) :   2.3831 B( 11-C , 12-O ) :   2.3829

FINAL SINGLE POINT ENERGY     -1717.060791624203

DIPOLE MOMENT
-------------
                                X             Y             Z
Electronic contribution:     -0.00118      -0.00047       0.00076
Nuclear contribution   :      0.00087       0.00051      -0.00066
                        -----------------------------------------
Total Dipole Moment    :     -0.00031       0.00004       0.00010
                        -----------------------------------------
Magnitude (a.u.)       :      0.00033
Magnitude (Debye)      :      0.00083

Rotational constants in cm-1:     0.022283     0.022240     0.022104
Rotational constants in MHz :   668.016885   666.751386   662.674535

                             ****ORCA TERMINATED NORMALLY****
TOTAL RUN TIME: 0 days 0 hours 0 minutes 25 seconds 298 msec
