                         Program Version 4.2.1 -  RELEASE  -
|  1> ! LDA pc-4 nori grid5 finalgrid6 verytightscf
|  2> %Pal NProcs 18 End
|  3>
|  4> *xyz 0 1
|  5> Cr -7.024455 2.159906 2.687477
|  6> C -5.745125 2.453969 4.046034
|  7> C -5.747986 1.193764 1.686659
|  8> C -6.493665 3.759856 1.835371
|  9> C -8.300845 3.126754 3.687779
| 10> O -9.070901 3.715082 4.291407
| 11> O -4.974179 2.632342 4.869002
| 12> O -4.977695 0.606824 1.081974
| 13> O -6.176347 4.727975 1.320041
| 14> C -8.304393 1.866232 1.329334
| 15> O -9.076187 1.688738 0.506975
| 16> C -7.553951 0.559352 3.539091
| 17> O -7.868850 -0.410064 4.053526
| 18> **                         ****END OF INPUT****

CARTESIAN COORDINATES (ANGSTROEM)
---------------------------------
  Cr    -7.024455    2.159906    2.687477
  C     -5.745125    2.453969    4.046034
  C     -5.747986    1.193764    1.686659
  C     -6.493665    3.759856    1.835371
  C     -8.300845    3.126754    3.687779
  O     -9.070901    3.715082    4.291407
  O     -4.974179    2.632342    4.869002
  O     -4.977695    0.606824    1.081974
  O     -6.176347    4.727975    1.320041
  C     -8.304393    1.866232    1.329334
  O     -9.076187    1.688738    0.506975
  C     -7.553951    0.559352    3.539091
  O     -7.868850   -0.410064    4.053526

 Total Charge           Charge          ....    0
 Multiplicity           Mult            ....    1
 Number of Electrons    NEL             ....  108
 Basis Dimension        Dim             .... 1456

ORBITAL ENERGIES
----------------

  NO   OCC          E(Eh)            E(eV)
   0   2.0000    -213.921829     -5821.1089
   1   2.0000     -24.221468      -659.0996
   2   2.0000     -20.629533      -561.3581
   3   2.0000     -20.629517      -561.3577
   4   2.0000     -20.629446      -561.3558
   5   2.0000     -18.705594      -509.0051
   6   2.0000     -18.705587      -509.0049
   7   2.0000     -18.705550      -509.0039
   8   2.0000     -18.705535      -509.0035
   9   2.0000     -18.705453      -509.0013
  10   2.0000     -18.705449      -509.0011
  11   2.0000      -9.920763      -269.9577
  12   2.0000      -9.920759      -269.9576
  13   2.0000      -9.920725      -269.9567
  14   2.0000      -9.920712      -269.9563
  15   2.0000      -9.920617      -269.9537
  16   2.0000      -9.920616      -269.9537
  17   2.0000      -2.731136       -74.3180
  18   2.0000      -1.737240       -47.2727
  19   2.0000      -1.737138       -47.2699
  20   2.0000      -1.736914       -47.2638
  21   2.0000      -1.064499       -28.9665
  22   2.0000      -1.063451       -28.9380
  23   2.0000      -1.063391       -28.9363
  24   2.0000      -1.063319       -28.9344
  25   2.0000      -1.062979       -28.9251
  26   2.0000      -1.062906       -28.9231
  27   2.0000      -0.569089       -15.4857
  28   2.0000      -0.522243       -14.2110
  29   2.0000      -0.522191       -14.2095
  30   2.0000      -0.521857       -14.2005
  31   2.0000      -0.519185       -14.1277
  32   2.0000      -0.519137       -14.1264
  33   2.0000      -0.466081       -12.6827
  34   2.0000      -0.456441       -12.4204
  35   2.0000      -0.456374       -12.4186
  36   2.0000      -0.456207       -12.4140
  37   2.0000      -0.450917       -12.2701
  38   2.0000      -0.450805       -12.2670
  39   2.0000      -0.450500       -12.2587
  40   2.0000      -0.436845       -11.8872
  41   2.0000      -0.436612       -11.8808
  42   2.0000      -0.436573       -11.8798
  43   2.0000      -0.429498       -11.6872
  44   2.0000      -0.429459       -11.6862
  45   2.0000      -0.429431       -11.6854
  46   2.0000      -0.422908       -11.5079
  47   2.0000      -0.422857       -11.5065
  48   2.0000      -0.382564       -10.4101
  49   2.0000      -0.382414       -10.4060
  50   2.0000      -0.381840       -10.3904
  51   2.0000      -0.249423        -6.7872
  52   2.0000      -0.249350        -6.7851
  53   2.0000      -0.249037        -6.7767
  54   0.0000      -0.099703        -2.7130
  55   0.0000      -0.099526        -2.7082
  56   0.0000      -0.098997        -2.6938
  57   0.0000      -0.086139        -2.3440
  58   0.0000      -0.085518        -2.3271

MULLIKEN ATOMIC CHARGES
-----------------------
   0 Cr:    0.762156
   1 C :    0.216759
   2 C :    0.216858
   3 C :    0.217130
   4 C :    0.217236
   5 O :   -0.343934
   6 O :   -0.344008
   7 O :   -0.343619
   8 O :   -0.344318
   9 C :    0.217604
  10 O :   -0.344655
  11 C :    0.216725
  12 O :   -0.343933
Sum of atomic charges:   -0.0000000

LOEWDIN ATOMIC CHARGES
----------------------
   0 Cr:   -0.372700
   1 C :   -0.391724
   2 C :   -0.392784
   3 C :   -0.392010
   4 C :   -0.392724
   5 O :    0.454273
   6 O :    0.454286
   7 O :    0.454297
   8 O :    0.454274
   9 C :   -0.391667
  10 O :    0.454277
  11 C :   -0.392005
  12 O :    0.454206

  Mayer bond orders larger than 0.100000
B(  0-Cr,  1-C ) :   0.7590 B(  0-Cr,  2-C ) :   0.7626 B(  0-Cr,  3-C ) :   0.7600
B(  0-Cr,  4-C ) :   0.7626 B(  0-Cr,  5-O ) :   0.1051 B(  0-Cr,  6-O ) :   0.1056
B(  0-Cr,  7-O ) :   0.1052 B(  0-Cr,  8-O ) :   0.1054 B(  0-Cr,  9-C ) :   0.7592
B(  0-Cr, 10-O ) :   0.1055 B(  0-Cr, 11-C ) :   0.7599 B(  0-Cr, 12-O ) :   0.1055
B(  1-C ,  2-C ) :   0.1128 B(  1-C ,  3-C ) :   0.1127 B(  1-C ,  4-C ) :   0.1128
B(  1-C ,  6-O ) :   2.3288 B(  1-C , 11-C ) :   0.1124 B(  2-C ,  3-C ) :   0.1132
B(  2-C ,  7-O ) :   2.3265 B(  2-C ,  9-C ) :   0.1127 B(  2-C , 11-C ) :   0.1128
B(  3-C ,  4-C ) :   0.1126 B(  3-C ,  8-O ) :   2.3271 B(  3-C ,  9-C ) :   0.1123
B(  4-C ,  5-O ) :   2.3261 B(  4-C ,  9-C ) :   0.1130 B(  4-C , 11-C ) :   0.1129
B(  9-C , 10-O ) :   2.3282 B(  9-C , 11-C ) :   0.1127 B( 11-C , 12-O ) :   2.3276

FINAL SINGLE POINT ENERGY     -1717.576036840886

DIPOLE MOMENT
-------------
                                X             Y             Z
Electronic contribution:     -0.00121      -0.00048       0.00078
Nuclear contribution   :      0.00087       0.00051      -0.00066
                        -----------------------------------------
Total Dipole Moment    :     -0.00034       0.00002       0.00012
                        -----------------------------------------
Magnitude (a.u.)       :      0.00036
Magnitude (Debye)      :      0.00093

Rotational constants in cm-1:     0.022283     0.022240     0.022104
Rotational constants in MHz :   668.016885   666.751386   662.674535

                             ****ORCA TERMINATED NORMALLY****
TOTAL RUN TIME: 0 days 2 hours 41 minutes 50 seconds 32 msec
