                         Program Version 4.2.1 -  RELEASE  -
|  1> ! LDA zora-def2-qzvpp nori grid5 finalgrid6 verytightscf
|  2> %Pal NProcs 18 End
|  3>
|  4> *xyz 0 1
|  5> Cr -7.024455 2.159906 2.687477
|  6> C -5.745125 2.453969 4.046034
|  7> C -5.747986 1.193764 1.686659
|  8> C -6.493665 3.759856 1.835371
|  9> C -8.300845 3.126754 3.687779
| 10> O -9.070901 3.715082 4.291407
| 11> O -4.974179 2.632342 4.869002
| 12> O -4.977695 0.606824 1.081974
| 13> O -6.176347 4.727975 1.320041
| 14> C -8.304393 1.866232 1.329334
| 15> O -9.076187 1.688738 0.506975
| 16> C -7.553951 0.559352 3.539091
| 17> O -7.868850 -0.410064 4.053526
| 18> **                         ****END OF INPUT****

CARTESIAN COORDINATES (ANGSTROEM)
---------------------------------
  Cr    -7.024455    2.159906    2.687477
  C     -5.745125    2.453969    4.046034
  C     -5.747986    1.193764    1.686659
  C     -6.493665    3.759856    1.835371
  C     -8.300845    3.126754    3.687779
  O     -9.070901    3.715082    4.291407
  O     -4.974179    2.632342    4.869002
  O     -4.977695    0.606824    1.081974
  O     -6.176347    4.727975    1.320041
  C     -8.304393    1.866232    1.329334
  O     -9.076187    1.688738    0.506975
  C     -7.553951    0.559352    3.539091
  O     -7.868850   -0.410064    4.053526

 Total Charge           Charge          ....    0
 Multiplicity           Mult            ....    1
 Number of Electrons    NEL             ....  108
 Basis Dimension        Dim             ....  804

ORBITAL ENERGIES
----------------

  NO   OCC          E(Eh)            E(eV)
   0   2.0000    -213.932021     -5821.3862
   1   2.0000     -24.223835      -659.1641
   2   2.0000     -20.632478      -561.4383
   3   2.0000     -20.632461      -561.4378
   4   2.0000     -20.632389      -561.4358
   5   2.0000     -18.707262      -509.0505
   6   2.0000     -18.707255      -509.0503
   7   2.0000     -18.707218      -509.0493
   8   2.0000     -18.707203      -509.0489
   9   2.0000     -18.707120      -509.0466
  10   2.0000     -18.707116      -509.0465
  11   2.0000      -9.921388      -269.9747
  12   2.0000      -9.921384      -269.9746
  13   2.0000      -9.921350      -269.9737
  14   2.0000      -9.921337      -269.9733
  15   2.0000      -9.921241      -269.9707
  16   2.0000      -9.921241      -269.9707
  17   2.0000      -2.731202       -74.3198
  18   2.0000      -1.737337       -47.2753
  19   2.0000      -1.737235       -47.2726
  20   2.0000      -1.737012       -47.2665
  21   2.0000      -1.064390       -28.9635
  22   2.0000      -1.063341       -28.9350
  23   2.0000      -1.063280       -28.9333
  24   2.0000      -1.063208       -28.9314
  25   2.0000      -1.062869       -28.9221
  26   2.0000      -1.062795       -28.9201
  27   2.0000      -0.568895       -15.4804
  28   2.0000      -0.522027       -14.2051
  29   2.0000      -0.521975       -14.2037
  30   2.0000      -0.521641       -14.1946
  31   2.0000      -0.518966       -14.1218
  32   2.0000      -0.518918       -14.1205
  33   2.0000      -0.465840       -12.6762
  34   2.0000      -0.456183       -12.4134
  35   2.0000      -0.456116       -12.4116
  36   2.0000      -0.455949       -12.4070
  37   2.0000      -0.450667       -12.2633
  38   2.0000      -0.450555       -12.2602
  39   2.0000      -0.450250       -12.2519
  40   2.0000      -0.436583       -11.8800
  41   2.0000      -0.436350       -11.8737
  42   2.0000      -0.436311       -11.8726
  43   2.0000      -0.429241       -11.6802
  44   2.0000      -0.429203       -11.6792
  45   2.0000      -0.429174       -11.6784
  46   2.0000      -0.422662       -11.5012
  47   2.0000      -0.422611       -11.4998
  48   2.0000      -0.382321       -10.4035
  49   2.0000      -0.382170       -10.3994
  50   2.0000      -0.381596       -10.3838
  51   2.0000      -0.249104        -6.7785
  52   2.0000      -0.249030        -6.7764
  53   2.0000      -0.248718        -6.7680
  54   0.0000      -0.099367        -2.7039
  55   0.0000      -0.099190        -2.6991
  56   0.0000      -0.098662        -2.6847
  57   0.0000      -0.085630        -2.3301
  58   0.0000      -0.085008        -2.3132

MULLIKEN ATOMIC CHARGES
-----------------------
   0 Cr:    0.562422
   1 C :   -0.006730
   2 C :   -0.006598
   3 C :   -0.006692
   4 C :   -0.006675
   5 O :   -0.087086
   6 O :   -0.086966
   7 O :   -0.087096
   8 O :   -0.087019
   9 C :   -0.006752
  10 O :   -0.086952
  11 C :   -0.006796
  12 O :   -0.087059
Sum of atomic charges:    0.0000000

LOEWDIN ATOMIC CHARGES
----------------------
   0 Cr:   -1.476469
   1 C :   -0.243153
   2 C :   -0.243870
   3 C :   -0.243340
   4 C :   -0.243837
   5 O :    0.489514
   6 O :    0.489551
   7 O :    0.489520
   8 O :    0.489521
   9 C :   -0.243118
  10 O :    0.489552
  11 C :   -0.243342
  12 O :    0.489470

  Mayer bond orders larger than 0.100000
B(  0-Cr,  1-C ) :   0.8323 B(  0-Cr,  2-C ) :   0.8339 B(  0-Cr,  3-C ) :   0.8328
B(  0-Cr,  4-C ) :   0.8338 B(  0-Cr,  9-C ) :   0.8322 B(  0-Cr, 11-C ) :   0.8327
B(  1-C ,  2-C ) :   0.1089 B(  1-C ,  3-C ) :   0.1090 B(  1-C ,  4-C ) :   0.1097
B(  1-C ,  6-O ) :   2.2763 B(  1-C , 11-C ) :   0.1096 B(  2-C ,  3-C ) :   0.1088
B(  2-C ,  7-O ) :   2.2760 B(  2-C ,  9-C ) :   0.1097 B(  2-C , 11-C ) :   0.1100
B(  3-C ,  4-C ) :   0.1099 B(  3-C ,  8-O ) :   2.2762 B(  3-C ,  9-C ) :   0.1095
B(  4-C ,  5-O ) :   2.2760 B(  4-C ,  9-C ) :   0.1090 B(  4-C , 11-C ) :   0.1087
B(  9-C , 10-O ) :   2.2763 B(  9-C , 11-C ) :   0.1090 B( 11-C , 12-O ) :   2.2761

FINAL SINGLE POINT ENERGY     -1717.536270789055

DIPOLE MOMENT
-------------
                                X             Y             Z
Electronic contribution:     -0.00121      -0.00048       0.00078
Nuclear contribution   :      0.00087       0.00051      -0.00066
                        -----------------------------------------
Total Dipole Moment    :     -0.00034       0.00002       0.00012
                        -----------------------------------------
Magnitude (a.u.)       :      0.00036
Magnitude (Debye)      :      0.00092

Rotational constants in cm-1:     0.022283     0.022240     0.022104
Rotational constants in MHz :   668.016885   666.751386   662.674535

                             ****ORCA TERMINATED NORMALLY****
TOTAL RUN TIME: 0 days 0 hours 11 minutes 26 seconds 813 msec
