                         Program Version 4.2.1 -  RELEASE  -
|  1> ! LDA def2-qzvpp nori grid5 finalgrid6 verytightscf
|  2> %Pal NProcs 18 End
|  3>
|  4> *xyz 0 1
|  5> O 0.0000 0.0000 0.1173
|  6> H 0.0000 0.7572 -0.4692
|  7> H 0.0000 -0.7572 -0.4692
|  8> **                         ****END OF INPUT****

CARTESIAN COORDINATES (ANGSTROEM)
---------------------------------
  O      0.000000    0.000000    0.117300
  H      0.000000    0.757200   -0.469200
  H      0.000000   -0.757200   -0.469200

 Total Charge           Charge          ....    0
 Multiplicity           Mult            ....    1
 Number of Electrons    NEL             ....   10
 Basis Dimension        Dim             ....  117

ORBITAL ENERGIES
----------------

  NO   OCC          E(Eh)            E(eV)
   0   2.0000     -18.607999      -506.3494
   1   2.0000      -0.923878       -25.1400
   2   2.0000      -0.485445       -13.2096
   3   2.0000      -0.342805        -9.3282
   4   2.0000      -0.268932        -7.3180
   5   0.0000      -0.012595        -0.3427
   6   0.0000       0.055554         1.5117
   7   0.0000       0.215045         5.8517
   8   0.0000       0.233328         6.3492
   9   0.0000       0.233485         6.3534

MULLIKEN ATOMIC CHARGES
-----------------------
   0 O :   -0.370061
   1 H :    0.185030
   2 H :    0.185030
Sum of atomic charges:    0.0000000

LOEWDIN ATOMIC CHARGES
----------------------
   0 O :    0.725992
   1 H :   -0.362996
   2 H :   -0.362996

  Mayer bond orders larger than 0.100000
B(  0-O ,  1-H ) :   1.0672 B(  0-O ,  2-H ) :   1.0672

FINAL SINGLE POINT ENERGY       -75.911707996983

DIPOLE MOMENT
-------------
                                X             Y             Z
Electronic contribution:      0.00000       0.00000       0.21748
Nuclear contribution   :      0.00000       0.00000      -0.97636
                        -----------------------------------------
Total Dipole Moment    :      0.00000       0.00000      -0.75888
                        -----------------------------------------
Magnitude (a.u.)       :      0.75888
Magnitude (Debye)      :      1.92892

Rotational constants in cm-1:    27.372330    14.584286     9.514730
Rotational constants in MHz : 820601.811463 437225.885101 285244.437146

                             ****ORCA TERMINATED NORMALLY****
TOTAL RUN TIME: 0 days 0 hours 0 minutes 4 seconds 621 msec
