                         Program Version 4.2.1 -  RELEASE  -
|  1> ! LDA pc-4 nori grid5 finalgrid6 verytightscf
|  2> %Pal NProcs 18 End
|  3>
|  4> *xyz 0 1
|  5> O 0.0000 0.0000 0.1173
|  6> H 0.0000 0.7572 -0.4692
|  7> H 0.0000 -0.7572 -0.4692
|  8> **                         ****END OF INPUT****

CARTESIAN COORDINATES (ANGSTROEM)
---------------------------------
  O      0.000000    0.000000    0.117300
  H      0.000000    0.757200   -0.469200
  H      0.000000   -0.757200   -0.469200

 Total Charge           Charge          ....    0
 Multiplicity           Mult            ....    1
 Number of Electrons    NEL             ....   10
 Basis Dimension        Dim             ....  235

ORBITAL ENERGIES
----------------

  NO   OCC          E(Eh)            E(eV)
   0   2.0000     -18.609264      -506.3838
   1   2.0000      -0.926273       -25.2052
   2   2.0000      -0.487725       -13.2717
   3   2.0000      -0.345815        -9.4101
   4   2.0000      -0.271927        -7.3995
   5   0.0000      -0.030129        -0.8198
   6   0.0000       0.028716         0.7814
   7   0.0000       0.089575         2.4374
   8   0.0000       0.093238         2.5371
   9   0.0000       0.124047         3.3755

MULLIKEN ATOMIC CHARGES
-----------------------
   0 O :   -0.562962
   1 H :    0.281481
   2 H :    0.281481
Sum of atomic charges:   -0.0000000

LOEWDIN ATOMIC CHARGES
----------------------
   0 O :    1.215164
   1 H :   -0.607582
   2 H :   -0.607582

  Mayer bond orders larger than 0.100000
B(  0-O ,  1-H ) :   1.0168 B(  0-O ,  2-H ) :   1.0168

FINAL SINGLE POINT ENERGY       -75.913344516274

DIPOLE MOMENT
-------------
                                X             Y             Z
Electronic contribution:      0.00000      -0.00000       0.24338
Nuclear contribution   :      0.00000       0.00000      -0.97636
                        -----------------------------------------
Total Dipole Moment    :      0.00000      -0.00000      -0.73298
                        -----------------------------------------
Magnitude (a.u.)       :      0.73298
Magnitude (Debye)      :      1.86308

Rotational constants in cm-1:    27.372330    14.584286     9.514730
Rotational constants in MHz : 820601.811463 437225.885101 285244.437146

                             ****ORCA TERMINATED NORMALLY****
TOTAL RUN TIME: 0 days 0 hours 0 minutes 15 seconds 612 msec
