                         Program Version 4.2.1 -  RELEASE  -
|  1> ! LDA cc-pvdz nori grid5 finalgrid6 verytightscf
|  2> %Pal NProcs 18 End
|  3>
|  4> *xyz 0 1
|  5> O 0.0000 0.0000 0.1173
|  6> H 0.0000 0.7572 -0.4692
|  7> H 0.0000 -0.7572 -0.4692
|  8> **                         ****END OF INPUT****

CARTESIAN COORDINATES (ANGSTROEM)
---------------------------------
  O      0.000000    0.000000    0.117300
  H      0.000000    0.757200   -0.469200
  H      0.000000   -0.757200   -0.469200

 Total Charge           Charge          ....    0
 Multiplicity           Mult            ....    1
 Number of Electrons    NEL             ....   10
 Basis Dimension        Dim             ....   24

ORBITAL ENERGIES
----------------

  NO   OCC          E(Eh)            E(eV)
   0   2.0000     -18.579441      -505.5723
   1   2.0000      -0.895838       -24.3770
   2   2.0000      -0.458635       -12.4801
   3   2.0000      -0.304047        -8.2735
   4   2.0000      -0.228081        -6.2064
   5   0.0000       0.032951         0.8966
   6   0.0000       0.109334         2.9751
   7   0.0000       0.526647        14.3308
   8   0.0000       0.575596        15.6628
   9   0.0000       0.841738        22.9049

MULLIKEN ATOMIC CHARGES
-----------------------
   0 O :   -0.290251
   1 H :    0.145125
   2 H :    0.145125
Sum of atomic charges:   -0.0000000

LOEWDIN ATOMIC CHARGES
----------------------
   0 O :   -0.088738
   1 H :    0.044369
   2 H :    0.044369

  Mayer bond orders larger than 0.100000
B(  0-O ,  1-H ) :   1.0324 B(  0-O ,  2-H ) :   1.0324

FINAL SINGLE POINT ENERGY       -75.854689171383

DIPOLE MOMENT
-------------
                                X             Y             Z
Electronic contribution:     -0.00000      -0.00000       0.20952
Nuclear contribution   :      0.00000       0.00000      -0.97636
                        -----------------------------------------
Total Dipole Moment    :     -0.00000      -0.00000      -0.76684
                        -----------------------------------------
Magnitude (a.u.)       :      0.76684
Magnitude (Debye)      :      1.94916

Rotational constants in cm-1:    27.372330    14.584286     9.514730
Rotational constants in MHz : 820601.811463 437225.885101 285244.437146

                             ****ORCA TERMINATED NORMALLY****
TOTAL RUN TIME: 0 days 0 hours 0 minutes 3 seconds 354 msec
