                         Program Version 4.2.1 -  RELEASE  -
|  1> ! LDA def2-svp nori grid5 finalgrid6 verytightscf
|  2> %Pal NProcs 18 End
|  3>
|  4> *xyz 0 1
|  5> O 0.0000 0.0000 0.1173
|  6> H 0.0000 0.7572 -0.4692
|  7> H 0.0000 -0.7572 -0.4692
|  8> **                         ****END OF INPUT****

CARTESIAN COORDINATES (ANGSTROEM)
---------------------------------
  O      0.000000    0.000000    0.117300
  H      0.000000    0.757200   -0.469200
  H      0.000000   -0.757200   -0.469200

 Total Charge           Charge          ....    0
 Multiplicity           Mult            ....    1
 Number of Electrons    NEL             ....   10
 Basis Dimension        Dim             ....   24

ORBITAL ENERGIES
----------------

  NO   OCC          E(Eh)            E(eV)
   0   2.0000     -18.579103      -505.5631
   1   2.0000      -0.883944       -24.0533
   2   2.0000      -0.462049       -12.5730
   3   2.0000      -0.305100        -8.3022
   4   2.0000      -0.231853        -6.3090
   5   0.0000       0.029099         0.7918
   6   0.0000       0.107054         2.9131
   7   0.0000       0.529818        14.4171
   8   0.0000       0.584880        15.9154
   9   0.0000       0.857190        23.3253

MULLIKEN ATOMIC CHARGES
-----------------------
   0 O :   -0.328020
   1 H :    0.164010
   2 H :    0.164010
Sum of atomic charges:   -0.0000000

LOEWDIN ATOMIC CHARGES
----------------------
   0 O :   -0.151193
   1 H :    0.075596
   2 H :    0.075596

  Mayer bond orders larger than 0.100000
B(  0-O ,  1-H ) :   1.0062 B(  0-O ,  2-H ) :   1.0062

FINAL SINGLE POINT ENERGY       -75.795180006779

DIPOLE MOMENT
-------------
                                X             Y             Z
Electronic contribution:     -0.00000      -0.00000       0.17977
Nuclear contribution   :      0.00000       0.00000      -0.97636
                        -----------------------------------------
Total Dipole Moment    :     -0.00000      -0.00000      -0.79659
                        -----------------------------------------
Magnitude (a.u.)       :      0.79659
Magnitude (Debye)      :      2.02477

Rotational constants in cm-1:    27.372330    14.584286     9.514730
Rotational constants in MHz : 820601.811463 437225.885101 285244.437146

                             ****ORCA TERMINATED NORMALLY****
TOTAL RUN TIME: 0 days 0 hours 0 minutes 3 seconds 320 msec
