                         Program Version 4.2.1 -  RELEASE  -
|  1> ! LDA zora-def2-qzvpp nori grid5 finalgrid6 verytightscf
|  2> %Pal NProcs 18 End
|  3>
|  4> *xyz 0 1
|  5> O 0.0000 0.0000 0.1173
|  6> H 0.0000 0.7572 -0.4692
|  7> H 0.0000 -0.7572 -0.4692
|  8> **                         ****END OF INPUT****

CARTESIAN COORDINATES (ANGSTROEM)
---------------------------------
  O      0.000000    0.000000    0.117300
  H      0.000000    0.757200   -0.469200
  H      0.000000   -0.757200   -0.469200

 Total Charge           Charge          ....    0
 Multiplicity           Mult            ....    1
 Number of Electrons    NEL             ....   10
 Basis Dimension        Dim             ....  118

ORBITAL ENERGIES
----------------

  NO   OCC          E(Eh)            E(eV)
   0   2.0000     -18.607831      -506.3448
   1   2.0000      -0.923893       -25.1404
   2   2.0000      -0.485474       -13.2104
   3   2.0000      -0.342822        -9.3287
   4   2.0000      -0.268945        -7.3184
   5   0.0000      -0.012606        -0.3430
   6   0.0000       0.055567         1.5121
   7   0.0000       0.215040         5.8515
   8   0.0000       0.233344         6.3496
   9   0.0000       0.233480         6.3533

MULLIKEN ATOMIC CHARGES
-----------------------
   0 O :   -0.262747
   1 H :    0.131374
   2 H :    0.131374
Sum of atomic charges:   -0.0000000

LOEWDIN ATOMIC CHARGES
----------------------
   0 O :    0.725451
   1 H :   -0.362725
   2 H :   -0.362725

  Mayer bond orders larger than 0.100000
B(  0-O ,  1-H ) :   1.0973 B(  0-O ,  2-H ) :   1.0973

FINAL SINGLE POINT ENERGY       -75.911678225407

DIPOLE MOMENT
-------------
                                X             Y             Z
Electronic contribution:     -0.00000       0.00000       0.21759
Nuclear contribution   :      0.00000       0.00000      -0.97636
                        -----------------------------------------
Total Dipole Moment    :     -0.00000       0.00000      -0.75876
                        -----------------------------------------
Magnitude (a.u.)       :      0.75876
Magnitude (Debye)      :      1.92863

Rotational constants in cm-1:    27.372330    14.584286     9.514730
Rotational constants in MHz : 820601.811463 437225.885101 285244.437146

                             ****ORCA TERMINATED NORMALLY****
TOTAL RUN TIME: 0 days 0 hours 0 minutes 4 seconds 319 msec
