                         Program Version 4.2.1 -  RELEASE  -
|  1> ! LDA cc-pv5z nori grid5 finalgrid6 verytightscf
|  2> %Pal NProcs 18 End
|  3>
|  4> *xyz 0 1
|  5> O 0.0000 0.0000 0.1173
|  6> H 0.0000 0.7572 -0.4692
|  7> H 0.0000 -0.7572 -0.4692
|  8> **                         ****END OF INPUT****

CARTESIAN COORDINATES (ANGSTROEM)
---------------------------------
  O      0.000000    0.000000    0.117300
  H      0.000000    0.757200   -0.469200
  H      0.000000   -0.757200   -0.469200

 Total Charge           Charge          ....    0
 Multiplicity           Mult            ....    1
 Number of Electrons    NEL             ....   10
 Basis Dimension        Dim             ....  201

ORBITAL ENERGIES
----------------

  NO   OCC          E(Eh)            E(eV)
   0   2.0000     -18.605526      -506.2821
   1   2.0000      -0.924139       -25.1471
   2   2.0000      -0.485771       -13.2185
   3   2.0000      -0.343410        -9.3446
   4   2.0000      -0.269442        -7.3319
   5   0.0000      -0.017400        -0.4735
   6   0.0000       0.050751         1.3810
   7   0.0000       0.194925         5.3042
   8   0.0000       0.207920         5.6578
   9   0.0000       0.229404         6.2424

MULLIKEN ATOMIC CHARGES
-----------------------
   0 O :   -0.498296
   1 H :    0.249148
   2 H :    0.249148
Sum of atomic charges:    0.0000000

LOEWDIN ATOMIC CHARGES
----------------------
   0 O :    1.129621
   1 H :   -0.564811
   2 H :   -0.564811

  Mayer bond orders larger than 0.100000
B(  0-O ,  1-H ) :   1.0886 B(  0-O ,  2-H ) :   1.0886

FINAL SINGLE POINT ENERGY       -75.912300141650

DIPOLE MOMENT
-------------
                                X             Y             Z
Electronic contribution:     -0.00000       0.00000       0.22722
Nuclear contribution   :      0.00000       0.00000      -0.97636
                        -----------------------------------------
Total Dipole Moment    :     -0.00000       0.00000      -0.74914
                        -----------------------------------------
Magnitude (a.u.)       :      0.74914
Magnitude (Debye)      :      1.90417

Rotational constants in cm-1:    27.372330    14.584286     9.514730
Rotational constants in MHz : 820601.811463 437225.885101 285244.437146

                             ****ORCA TERMINATED NORMALLY****
TOTAL RUN TIME: 0 days 0 hours 0 minutes 10 seconds 545 msec
