                         Program Version 4.2.1 -  RELEASE  -
|  1> ! LDA pc-3 nori grid5 finalgrid6 verytightscf
|  2> %Pal NProcs 18 End
|  3>
|  4> *xyz 0 1
|  5> O 0.0000 0.0000 0.1173
|  6> H 0.0000 0.7572 -0.4692
|  7> H 0.0000 -0.7572 -0.4692
|  8> **                         ****END OF INPUT****

CARTESIAN COORDINATES (ANGSTROEM)
---------------------------------
  O      0.000000    0.000000    0.117300
  H      0.000000    0.757200   -0.469200
  H      0.000000   -0.757200   -0.469200

 Total Charge           Charge          ....    0
 Multiplicity           Mult            ....    1
 Number of Electrons    NEL             ....   10
 Basis Dimension        Dim             ....  132

ORBITAL ENERGIES
----------------

  NO   OCC          E(Eh)            E(eV)
   0   2.0000     -18.609087      -506.3790
   1   2.0000      -0.926074       -25.1998
   2   2.0000      -0.487527       -13.2663
   3   2.0000      -0.345513        -9.4019
   4   2.0000      -0.271629        -7.3914
   5   0.0000      -0.026651        -0.7252
   6   0.0000       0.034981         0.9519
   7   0.0000       0.125740         3.4216
   8   0.0000       0.132132         3.5955
   9   0.0000       0.162875         4.4320

MULLIKEN ATOMIC CHARGES
-----------------------
   0 O :   -0.455285
   1 H :    0.227642
   2 H :    0.227642
Sum of atomic charges:    0.0000000

LOEWDIN ATOMIC CHARGES
----------------------
   0 O :    0.752965
   1 H :   -0.376482
   2 H :   -0.376482

  Mayer bond orders larger than 0.100000
B(  0-O ,  1-H ) :   1.0317 B(  0-O ,  2-H ) :   1.0317

FINAL SINGLE POINT ENERGY       -75.913119147041

DIPOLE MOMENT
-------------
                                X             Y             Z
Electronic contribution:     -0.00000       0.00000       0.23465
Nuclear contribution   :      0.00000       0.00000      -0.97636
                        -----------------------------------------
Total Dipole Moment    :     -0.00000       0.00000      -0.74171
                        -----------------------------------------
Magnitude (a.u.)       :      0.74171
Magnitude (Debye)      :      1.88528

Rotational constants in cm-1:    27.372330    14.584286     9.514730
Rotational constants in MHz : 820601.811463 437225.885101 285244.437146

                             ****ORCA TERMINATED NORMALLY****
TOTAL RUN TIME: 0 days 0 hours 0 minutes 4 seconds 811 msec
