                         Program Version 4.2.1 -  RELEASE  -
|  1> ! LDA cc-pvqz nori grid5 finalgrid6 verytightscf
|  2> %Pal NProcs 18 End
|  3>
|  4> *xyz 0 1
|  5> O 0.0000 0.0000 0.1173
|  6> H 0.0000 0.7572 -0.4692
|  7> H 0.0000 -0.7572 -0.4692
|  8> **                         ****END OF INPUT****

CARTESIAN COORDINATES (ANGSTROEM)
---------------------------------
  O      0.000000    0.000000    0.117300
  H      0.000000    0.757200   -0.469200
  H      0.000000   -0.757200   -0.469200

 Total Charge           Charge          ....    0
 Multiplicity           Mult            ....    1
 Number of Electrons    NEL             ....   10
 Basis Dimension        Dim             ....  115

ORBITAL ENERGIES
----------------

  NO   OCC          E(Eh)            E(eV)
   0   2.0000     -18.597016      -506.0505
   1   2.0000      -0.919178       -25.0121
   2   2.0000      -0.481163       -13.0931
   3   2.0000      -0.337838        -9.1930
   4   2.0000      -0.263371        -7.1667
   5   0.0000      -0.005112        -0.1391
   6   0.0000       0.066616         1.8127
   7   0.0000       0.272023         7.4021
   8   0.0000       0.302596         8.2341
   9   0.0000       0.309105         8.4112

MULLIKEN ATOMIC CHARGES
-----------------------
   0 O :   -0.467446
   1 H :    0.233723
   2 H :    0.233723
Sum of atomic charges:   -0.0000000

LOEWDIN ATOMIC CHARGES
----------------------
   0 O :    0.851090
   1 H :   -0.425545
   2 H :   -0.425545

  Mayer bond orders larger than 0.100000
B(  0-O ,  1-H ) :   1.0636 B(  0-O ,  2-H ) :   1.0636

FINAL SINGLE POINT ENERGY       -75.908212828437

DIPOLE MOMENT
-------------
                                X             Y             Z
Electronic contribution:      0.00000      -0.00000       0.22317
Nuclear contribution   :      0.00000       0.00000      -0.97636
                        -----------------------------------------
Total Dipole Moment    :      0.00000      -0.00000      -0.75319
                        -----------------------------------------
Magnitude (a.u.)       :      0.75319
Magnitude (Debye)      :      1.91445

Rotational constants in cm-1:    27.372330    14.584286     9.514730
Rotational constants in MHz : 820601.811463 437225.885101 285244.437146

                             ****ORCA TERMINATED NORMALLY****
TOTAL RUN TIME: 0 days 0 hours 0 minutes 4 seconds 614 msec
