                         Program Version 4.2.1 -  RELEASE  -
|  1> ! LDA cc-pcvqz nori grid5 finalgrid6 verytightscf
|  2> %Pal NProcs 18 End
|  3>
|  4> *xyz 0 1
|  5> O 0.0000 0.0000 0.1173
|  6> H 0.0000 0.7572 -0.4692
|  7> H 0.0000 -0.7572 -0.4692
|  8> **                         ****END OF INPUT****

CARTESIAN COORDINATES (ANGSTROEM)
---------------------------------
  O      0.000000    0.000000    0.117300
  H      0.000000    0.757200   -0.469200
  H      0.000000   -0.757200   -0.469200

 Total Charge           Charge          ....    0
 Multiplicity           Mult            ....    1
 Number of Electrons    NEL             ....   10
 Basis Dimension        Dim             ....  144

ORBITAL ENERGIES
----------------

  NO   OCC          E(Eh)            E(eV)
   0   2.0000     -18.600148      -506.1358
   1   2.0000      -0.919205       -25.0128
   2   2.0000      -0.481225       -13.0948
   3   2.0000      -0.337935        -9.1957
   4   2.0000      -0.263464        -7.1692
   5   0.0000      -0.005198        -0.1415
   6   0.0000       0.066561         1.8112
   7   0.0000       0.271973         7.4008
   8   0.0000       0.302067         8.2197
   9   0.0000       0.308883         8.4051

MULLIKEN ATOMIC CHARGES
-----------------------
   0 O :   -0.475241
   1 H :    0.237621
   2 H :    0.237621
Sum of atomic charges:    0.0000000

LOEWDIN ATOMIC CHARGES
----------------------
   0 O :    0.850029
   1 H :   -0.425014
   2 H :   -0.425014

  Mayer bond orders larger than 0.100000
B(  0-O ,  1-H ) :   1.0609 B(  0-O ,  2-H ) :   1.0609

FINAL SINGLE POINT ENERGY       -75.909127864774

DIPOLE MOMENT
-------------
                                X             Y             Z
Electronic contribution:      0.00000      -0.00000       0.22330
Nuclear contribution   :      0.00000       0.00000      -0.97636
                        -----------------------------------------
Total Dipole Moment    :      0.00000      -0.00000      -0.75306
                        -----------------------------------------
Magnitude (a.u.)       :      0.75306
Magnitude (Debye)      :      1.91414

Rotational constants in cm-1:    27.372330    14.584286     9.514730
Rotational constants in MHz : 820601.811463 437225.885101 285244.437146

                             ****ORCA TERMINATED NORMALLY****
TOTAL RUN TIME: 0 days 0 hours 0 minutes 5 seconds 189 msec
