                         Program Version 4.2.1 -  RELEASE  -
|  1> ! LDA zora-def2-svp nori grid5 finalgrid6 verytightscf
|  2> %Pal NProcs 18 End
|  3>
|  4> *xyz 0 1
|  5> O 0.0000 0.0000 0.1173
|  6> H 0.0000 0.7572 -0.4692
|  7> H 0.0000 -0.7572 -0.4692
|  8> **                         ****END OF INPUT****

CARTESIAN COORDINATES (ANGSTROEM)
---------------------------------
  O      0.000000    0.000000    0.117300
  H      0.000000    0.757200   -0.469200
  H      0.000000   -0.757200   -0.469200

 Total Charge           Charge          ....    0
 Multiplicity           Mult            ....    1
 Number of Electrons    NEL             ....   10
 Basis Dimension        Dim             ....   24

ORBITAL ENERGIES
----------------

  NO   OCC          E(Eh)            E(eV)
   0   2.0000     -18.558016      -504.9893
   1   2.0000      -0.881959       -23.9993
   2   2.0000      -0.463813       -12.6210
   3   2.0000      -0.304887        -8.2964
   4   2.0000      -0.232613        -6.3297
   5   0.0000       0.028845         0.7849
   6   0.0000       0.106469         2.8972
   7   0.0000       0.567857        15.4522
   8   0.0000       0.606932        16.5155
   9   0.0000       0.857125        23.3235

MULLIKEN ATOMIC CHARGES
-----------------------
   0 O :   -0.429803
   1 H :    0.214901
   2 H :    0.214901
Sum of atomic charges:   -0.0000000

LOEWDIN ATOMIC CHARGES
----------------------
   0 O :   -0.180021
   1 H :    0.090011
   2 H :    0.090011

  Mayer bond orders larger than 0.100000
B(  0-O ,  1-H ) :   0.9840 B(  0-O ,  2-H ) :   0.9840

FINAL SINGLE POINT ENERGY       -75.792219875257

DIPOLE MOMENT
-------------
                                X             Y             Z
Electronic contribution:     -0.00000      -0.00000       0.15509
Nuclear contribution   :      0.00000       0.00000      -0.97636
                        -----------------------------------------
Total Dipole Moment    :     -0.00000      -0.00000      -0.82127
                        -----------------------------------------
Magnitude (a.u.)       :      0.82127
Magnitude (Debye)      :      2.08749

Rotational constants in cm-1:    27.372330    14.584286     9.514730
Rotational constants in MHz : 820601.811463 437225.885101 285244.437146

                             ****ORCA TERMINATED NORMALLY****
TOTAL RUN TIME: 0 days 0 hours 0 minutes 3 seconds 291 msec
