                         Program Version 4.2.1 -  RELEASE  -
|  1> ! LDA pc-1 nori grid5 finalgrid6 verytightscf
|  2> %Pal NProcs 18 End
|  3>
|  4> *xyz 0 1
|  5> O 0.0000 0.0000 0.1173
|  6> H 0.0000 0.7572 -0.4692
|  7> H 0.0000 -0.7572 -0.4692
|  8> **                         ****END OF INPUT****

CARTESIAN COORDINATES (ANGSTROEM)
---------------------------------
  O      0.000000    0.000000    0.117300
  H      0.000000    0.757200   -0.469200
  H      0.000000   -0.757200   -0.469200

 Total Charge           Charge          ....    0
 Multiplicity           Mult            ....    1
 Number of Electrons    NEL             ....   10
 Basis Dimension        Dim             ....   24

ORBITAL ENERGIES
----------------

  NO   OCC          E(Eh)            E(eV)
   0   2.0000     -18.575622      -505.4684
   1   2.0000      -0.911050       -24.7909
   2   2.0000      -0.472813       -12.8659
   3   2.0000      -0.320416        -8.7190
   4   2.0000      -0.246337        -6.7032
   5   0.0000       0.017414         0.4739
   6   0.0000       0.089782         2.4431
   7   0.0000       0.499824        13.6009
   8   0.0000       0.566924        15.4268
   9   0.0000       0.744089        20.2477

MULLIKEN ATOMIC CHARGES
-----------------------
   0 O :   -0.458688
   1 H :    0.229344
   2 H :    0.229344
Sum of atomic charges:    0.0000000

LOEWDIN ATOMIC CHARGES
----------------------
   0 O :   -0.282516
   1 H :    0.141258
   2 H :    0.141258

  Mayer bond orders larger than 0.100000
B(  0-O ,  1-H ) :   0.9715 B(  0-O ,  2-H ) :   0.9715

FINAL SINGLE POINT ENERGY       -75.845979035325

DIPOLE MOMENT
-------------
                                X             Y             Z
Electronic contribution:     -0.00000      -0.00000       0.14969
Nuclear contribution   :      0.00000       0.00000      -0.97636
                        -----------------------------------------
Total Dipole Moment    :     -0.00000      -0.00000      -0.82667
                        -----------------------------------------
Magnitude (a.u.)       :      0.82667
Magnitude (Debye)      :      2.10123

Rotational constants in cm-1:    27.372330    14.584286     9.514730
Rotational constants in MHz : 820601.811463 437225.885101 285244.437146

                             ****ORCA TERMINATED NORMALLY****
TOTAL RUN TIME: 0 days 0 hours 0 minutes 3 seconds 354 msec
