                         Program Version 4.2.1 -  RELEASE  -
|  1> ! LDA cc-pcv5z nori grid5 finalgrid6 verytightscf
|  2> %Pal NProcs 18 End
|  3>
|  4> *xyz 0 1
|  5> O 0.0000 0.0000 0.1173
|  6> H 0.0000 0.7572 -0.4692
|  7> H 0.0000 -0.7572 -0.4692
|  8> **                         ****END OF INPUT****

CARTESIAN COORDINATES (ANGSTROEM)
---------------------------------
  O      0.000000    0.000000    0.117300
  H      0.000000    0.757200   -0.469200
  H      0.000000   -0.757200   -0.469200

 Total Charge           Charge          ....    0
 Multiplicity           Mult            ....    1
 Number of Electrons    NEL             ....   10
 Basis Dimension        Dim             ....  255

ORBITAL ENERGIES
----------------

  NO   OCC          E(Eh)            E(eV)
   0   2.0000     -18.606417      -506.3063
   1   2.0000      -0.924129       -25.1468
   2   2.0000      -0.485765       -13.2183
   3   2.0000      -0.343413        -9.3447
   4   2.0000      -0.269439        -7.3318
   5   0.0000      -0.017400        -0.4735
   6   0.0000       0.050751         1.3810
   7   0.0000       0.194799         5.3007
   8   0.0000       0.207919         5.6578
   9   0.0000       0.229203         6.2369

MULLIKEN ATOMIC CHARGES
-----------------------
   0 O :   -0.452132
   1 H :    0.226066
   2 H :    0.226066
Sum of atomic charges:   -0.0000000

LOEWDIN ATOMIC CHARGES
----------------------
   0 O :    1.129715
   1 H :   -0.564858
   2 H :   -0.564858

  Mayer bond orders larger than 0.100000
B(  0-O ,  1-H ) :   1.0971 B(  0-O ,  2-H ) :   1.0971

FINAL SINGLE POINT ENERGY       -75.912511769116

DIPOLE MOMENT
-------------
                                X             Y             Z
Electronic contribution:     -0.00000       0.00000       0.22732
Nuclear contribution   :      0.00000       0.00000      -0.97636
                        -----------------------------------------
Total Dipole Moment    :     -0.00000       0.00000      -0.74904
                        -----------------------------------------
Magnitude (a.u.)       :      0.74904
Magnitude (Debye)      :      1.90390

Rotational constants in cm-1:    27.372330    14.584286     9.514730
Rotational constants in MHz : 820601.811463 437225.885101 285244.437146

                             ****ORCA TERMINATED NORMALLY****
TOTAL RUN TIME: 0 days 0 hours 0 minutes 17 seconds 681 msec
