                         Program Version 4.2.1 -  RELEASE  -
|  1> ! LDA zora-def2-tzvp nori grid5 finalgrid6 verytightscf
|  2> %Pal NProcs 18 End
|  3>
|  4> *xyz 0 1
|  5> O 0.0000 0.0000 0.1173
|  6> H 0.0000 0.7572 -0.4692
|  7> H 0.0000 -0.7572 -0.4692
|  8> **                         ****END OF INPUT****

CARTESIAN COORDINATES (ANGSTROEM)
---------------------------------
  O      0.000000    0.000000    0.117300
  H      0.000000    0.757200   -0.469200
  H      0.000000   -0.757200   -0.469200

 Total Charge           Charge          ....    0
 Multiplicity           Mult            ....    1
 Number of Electrons    NEL             ....   10
 Basis Dimension        Dim             ....   44

ORBITAL ENERGIES
----------------

  NO   OCC          E(Eh)            E(eV)
   0   2.0000     -18.606518      -506.3091
   1   2.0000      -0.920368       -25.0445
   2   2.0000      -0.482318       -13.1245
   3   2.0000      -0.336489        -9.1563
   4   2.0000      -0.262609        -7.1460
   5   0.0000      -0.002731        -0.0743
   6   0.0000       0.073847         2.0095
   7   0.0000       0.327354         8.9077
   8   0.0000       0.376963        10.2577
   9   0.0000       0.389234        10.5916

MULLIKEN ATOMIC CHARGES
-----------------------
   0 O :   -0.645774
   1 H :    0.322887
   2 H :    0.322887
Sum of atomic charges:   -0.0000000

LOEWDIN ATOMIC CHARGES
----------------------
   0 O :   -0.314160
   1 H :    0.157080
   2 H :    0.157080

  Mayer bond orders larger than 0.100000
B(  0-O ,  1-H ) :   0.9078 B(  0-O ,  2-H ) :   0.9078

FINAL SINGLE POINT ENERGY       -75.901797275055

DIPOLE MOMENT
-------------
                                X             Y             Z
Electronic contribution:     -0.00000       0.00000       0.14419
Nuclear contribution   :      0.00000       0.00000      -0.97636
                        -----------------------------------------
Total Dipole Moment    :     -0.00000       0.00000      -0.83217
                        -----------------------------------------
Magnitude (a.u.)       :      0.83217
Magnitude (Debye)      :      2.11521

Rotational constants in cm-1:    27.372330    14.584286     9.514730
Rotational constants in MHz : 820601.811463 437225.885101 285244.437146

                             ****ORCA TERMINATED NORMALLY****
TOTAL RUN TIME: 0 days 0 hours 0 minutes 3 seconds 251 msec
