                         Program Version 4.2.1 -  RELEASE  -
|  1> ! LDA cc-pcvtz nori grid5 finalgrid6 verytightscf
|  2> %Pal NProcs 18 End
|  3>
|  4> *xyz 0 1
|  5> O 0.0000 0.0000 0.1173
|  6> H 0.0000 0.7572 -0.4692
|  7> H 0.0000 -0.7572 -0.4692
|  8> **                         ****END OF INPUT****

CARTESIAN COORDINATES (ANGSTROEM)
---------------------------------
  O      0.000000    0.000000    0.117300
  H      0.000000    0.757200   -0.469200
  H      0.000000   -0.757200   -0.469200

 Total Charge           Charge          ....    0
 Multiplicity           Mult            ....    1
 Number of Electrons    NEL             ....   10
 Basis Dimension        Dim             ....   71

ORBITAL ENERGIES
----------------

  NO   OCC          E(Eh)            E(eV)
   0   2.0000     -18.590776      -505.8807
   1   2.0000      -0.912599       -24.8331
   2   2.0000      -0.474889       -12.9224
   3   2.0000      -0.329431        -8.9643
   4   2.0000      -0.254475        -6.9246
   5   0.0000       0.007200         0.1959
   6   0.0000       0.081775         2.2252
   7   0.0000       0.337503         9.1839
   8   0.0000       0.381994        10.3946
   9   0.0000       0.453447        12.3389

MULLIKEN ATOMIC CHARGES
-----------------------
   0 O :   -0.430826
   1 H :    0.215413
   2 H :    0.215413
Sum of atomic charges:   -0.0000000

LOEWDIN ATOMIC CHARGES
----------------------
   0 O :    0.372323
   1 H :   -0.186161
   2 H :   -0.186161

  Mayer bond orders larger than 0.100000
B(  0-O ,  1-H ) :   1.0395 B(  0-O ,  2-H ) :   1.0395

FINAL SINGLE POINT ENERGY       -75.899508181194

DIPOLE MOMENT
-------------
                                X             Y             Z
Electronic contribution:     -0.00000       0.00000       0.21320
Nuclear contribution   :      0.00000       0.00000      -0.97636
                        -----------------------------------------
Total Dipole Moment    :     -0.00000       0.00000      -0.76316
                        -----------------------------------------
Magnitude (a.u.)       :      0.76316
Magnitude (Debye)      :      1.93980

Rotational constants in cm-1:    27.372330    14.584286     9.514730
Rotational constants in MHz : 820601.811463 437225.885101 285244.437146

                             ****ORCA TERMINATED NORMALLY****
TOTAL RUN TIME: 0 days 0 hours 0 minutes 3 seconds 566 msec
