                         Program Version 4.2.1 -  RELEASE  -
|  1> ! LDA pc-2 nori grid5 finalgrid6 verytightscf
|  2> %Pal NProcs 18 End
|  3>
|  4> *xyz 0 1
|  5> O 0.0000 0.0000 0.1173
|  6> H 0.0000 0.7572 -0.4692
|  7> H 0.0000 -0.7572 -0.4692
|  8> **                         ****END OF INPUT****

CARTESIAN COORDINATES (ANGSTROEM)
---------------------------------
  O      0.000000    0.000000    0.117300
  H      0.000000    0.757200   -0.469200
  H      0.000000   -0.757200   -0.469200

 Total Charge           Charge          ....    0
 Multiplicity           Mult            ....    1
 Number of Electrons    NEL             ....   10
 Basis Dimension        Dim             ....   58

ORBITAL ENERGIES
----------------

  NO   OCC          E(Eh)            E(eV)
   0   2.0000     -18.590150      -505.8637
   1   2.0000      -0.923360       -25.1259
   2   2.0000      -0.485053       -13.1990
   3   2.0000      -0.341157        -9.2834
   4   2.0000      -0.267683        -7.2840
   5   0.0000      -0.012793        -0.3481
   6   0.0000       0.053746         1.4625
   7   0.0000       0.248221         6.7544
   8   0.0000       0.264237         7.1902
   9   0.0000       0.298151         8.1131

MULLIKEN ATOMIC CHARGES
-----------------------
   0 O :   -0.423855
   1 H :    0.211927
   2 H :    0.211927
Sum of atomic charges:   -0.0000000

LOEWDIN ATOMIC CHARGES
----------------------
   0 O :    0.166516
   1 H :   -0.083258
   2 H :   -0.083258

  Mayer bond orders larger than 0.100000
B(  0-O ,  1-H ) :   1.0317 B(  0-O ,  2-H ) :   1.0317

FINAL SINGLE POINT ENERGY       -75.906481712501

DIPOLE MOMENT
-------------
                                X             Y             Z
Electronic contribution:      0.00000       0.00000       0.18087
Nuclear contribution   :      0.00000       0.00000      -0.97636
                        -----------------------------------------
Total Dipole Moment    :      0.00000       0.00000      -0.79549
                        -----------------------------------------
Magnitude (a.u.)       :      0.79549
Magnitude (Debye)      :      2.02197

Rotational constants in cm-1:    27.372330    14.584286     9.514730
Rotational constants in MHz : 820601.811463 437225.885101 285244.437146

                             ****ORCA TERMINATED NORMALLY****
TOTAL RUN TIME: 0 days 0 hours 0 minutes 3 seconds 489 msec
