                         Program Version 4.2.1 -  RELEASE  -
|  1> ! LDA def2-tzvp nori grid5 finalgrid6 verytightscf
|  2> %Pal NProcs 18 End
|  3>
|  4> *xyz 0 1
|  5> O 0.0000 0.0000 0.1173
|  6> H 0.0000 0.7572 -0.4692
|  7> H 0.0000 -0.7572 -0.4692
|  8> **                         ****END OF INPUT****

CARTESIAN COORDINATES (ANGSTROEM)
---------------------------------
  O      0.000000    0.000000    0.117300
  H      0.000000    0.757200   -0.469200
  H      0.000000   -0.757200   -0.469200

 Total Charge           Charge          ....    0
 Multiplicity           Mult            ....    1
 Number of Electrons    NEL             ....   10
 Basis Dimension        Dim             ....   43

ORBITAL ENERGIES
----------------

  NO   OCC          E(Eh)            E(eV)
   0   2.0000     -18.599823      -506.1269
   1   2.0000      -0.920412       -25.0457
   2   2.0000      -0.482323       -13.1247
   3   2.0000      -0.336506        -9.1568
   4   2.0000      -0.262602        -7.1458
   5   0.0000      -0.002605        -0.0709
   6   0.0000       0.073868         2.0100
   7   0.0000       0.327344         8.9075
   8   0.0000       0.377514        10.2727
   9   0.0000       0.389289        10.5931

MULLIKEN ATOMIC CHARGES
-----------------------
   0 O :   -0.645627
   1 H :    0.322814
   2 H :    0.322814
Sum of atomic charges:    0.0000000

LOEWDIN ATOMIC CHARGES
----------------------
   0 O :   -0.312988
   1 H :    0.156494
   2 H :    0.156494

  Mayer bond orders larger than 0.100000
B(  0-O ,  1-H ) :   0.9081 B(  0-O ,  2-H ) :   0.9081

FINAL SINGLE POINT ENERGY       -75.900790282695

DIPOLE MOMENT
-------------
                                X             Y             Z
Electronic contribution:     -0.00000       0.00000       0.14438
Nuclear contribution   :      0.00000       0.00000      -0.97636
                        -----------------------------------------
Total Dipole Moment    :     -0.00000       0.00000      -0.83198
                        -----------------------------------------
Magnitude (a.u.)       :      0.83198
Magnitude (Debye)      :      2.11473

Rotational constants in cm-1:    27.372330    14.584286     9.514730
Rotational constants in MHz : 820601.811463 437225.885101 285244.437146

                             ****ORCA TERMINATED NORMALLY****
TOTAL RUN TIME: 0 days 0 hours 0 minutes 3 seconds 288 msec
