                         Program Version 4.2.1 -  RELEASE  -
|  1> ! LDA cc-pvtz nori grid5 finalgrid6 verytightscf
|  2> %Pal NProcs 18 End
|  3>
|  4> *xyz 0 1
|  5> O 0.0000 0.0000 0.1173
|  6> H 0.0000 0.7572 -0.4692
|  7> H 0.0000 -0.7572 -0.4692
|  8> **                         ****END OF INPUT****

CARTESIAN COORDINATES (ANGSTROEM)
---------------------------------
  O      0.000000    0.000000    0.117300
  H      0.000000    0.757200   -0.469200
  H      0.000000   -0.757200   -0.469200

 Total Charge           Charge          ....    0
 Multiplicity           Mult            ....    1
 Number of Electrons    NEL             ....   10
 Basis Dimension        Dim             ....   58

ORBITAL ENERGIES
----------------

  NO   OCC          E(Eh)            E(eV)
   0   2.0000     -18.590844      -505.8826
   1   2.0000      -0.912669       -24.8350
   2   2.0000      -0.474866       -12.9218
   3   2.0000      -0.329321        -8.9613
   4   2.0000      -0.254431        -6.9234
   5   0.0000       0.007462         0.2030
   6   0.0000       0.081812         2.2262
   7   0.0000       0.337614         9.1870
   8   0.0000       0.382317        10.4034
   9   0.0000       0.455184        12.3862

MULLIKEN ATOMIC CHARGES
-----------------------
   0 O :   -0.421392
   1 H :    0.210696
   2 H :    0.210696
Sum of atomic charges:   -0.0000000

LOEWDIN ATOMIC CHARGES
----------------------
   0 O :    0.380436
   1 H :   -0.190218
   2 H :   -0.190218

  Mayer bond orders larger than 0.100000
B(  0-O ,  1-H ) :   1.0344 B(  0-O ,  2-H ) :   1.0344

FINAL SINGLE POINT ENERGY       -75.898354445998

DIPOLE MOMENT
-------------
                                X             Y             Z
Electronic contribution:     -0.00000       0.00000       0.21431
Nuclear contribution   :      0.00000       0.00000      -0.97636
                        -----------------------------------------
Total Dipole Moment    :     -0.00000       0.00000      -0.76205
                        -----------------------------------------
Magnitude (a.u.)       :      0.76205
Magnitude (Debye)      :      1.93697

Rotational constants in cm-1:    27.372330    14.584286     9.514730
Rotational constants in MHz : 820601.811463 437225.885101 285244.437146

                             ****ORCA TERMINATED NORMALLY****
TOTAL RUN TIME: 0 days 0 hours 0 minutes 3 seconds 519 msec
