                         Program Version 4.2.1 -  RELEASE  -
|  1> ! LDA cc-pvqz nori grid5 finalgrid6 verytightscf
|  2> %Pal NProcs 18 End
|  3>
|  4> *xyz 0 1
|  5> P 0.0000000000 0.0000000000 0.0000000000
|  6> H 0.0000000000 0.0000000000 1.4141500000
|  7> H 1.4127052064 0.0000000000 -0.0639079205
|  8> O -0.2628101077 1.6275926322 -0.2511898901
|  9> H -0.9542069755 1.7138775927 -0.9120164663
| 10> **                         ****END OF INPUT****

CARTESIAN COORDINATES (ANGSTROEM)
---------------------------------
  P      0.000000    0.000000    0.000000
  H      0.000000    0.000000    1.414150
  H      1.412705    0.000000   -0.063908
  O     -0.262810    1.627593   -0.251190
  H     -0.954207    1.713878   -0.912016

 Total Charge           Charge          ....    0
 Multiplicity           Mult            ....    1
 Number of Electrons    NEL             ....   26
 Basis Dimension        Dim             ....  204

ORBITAL ENERGIES
----------------

  NO   OCC          E(Eh)            E(eV)
   0   2.0000     -76.052728     -2069.4999
   1   2.0000     -18.625087      -506.8144
   2   2.0000      -6.301997      -171.4860
   3   2.0000      -4.555464      -123.9605
   4   2.0000      -4.551876      -123.8628
   5   2.0000      -4.547643      -123.7476
   6   2.0000      -0.938580       -25.5401
   7   2.0000      -0.588397       -16.0111
   8   2.0000      -0.442732       -12.0474
   9   2.0000      -0.373958       -10.1759
  10   2.0000      -0.373509       -10.1637
  11   2.0000      -0.273337        -7.4379
  12   2.0000      -0.227314        -6.1855
  13   0.0000      -0.054575        -1.4851
  14   0.0000       0.001474         0.0401
  15   0.0000       0.015375         0.4184
  16   0.0000       0.032597         0.8870
  17   0.0000       0.115541         3.1440

MULLIKEN ATOMIC CHARGES
-----------------------
   0 P :    0.143367
   1 H :    0.025228
   2 H :    0.025240
   3 O :   -0.425979
   4 H :    0.232144
Sum of atomic charges:   -0.0000000

LOEWDIN ATOMIC CHARGES
----------------------
   0 P :    0.208260
   1 H :   -0.163204
   2 H :   -0.163203
   3 O :    0.592845
   4 H :   -0.474698

  Mayer bond orders larger than 0.100000
B(  0-P ,  1-H ) :   0.9957 B(  0-P ,  2-H ) :   0.9957 B(  0-P ,  3-O ) :   1.0837
B(  3-O ,  4-H ) :   1.0131

FINAL SINGLE POINT ENERGY      -416.617283686921

DIPOLE MOMENT
-------------
                                X             Y             Z
Electronic contribution:     -0.75809      -0.60365      -0.72457
Nuclear contribution   :      0.57117       0.55687       0.54592
                        -----------------------------------------
Total Dipole Moment    :     -0.18692      -0.04678      -0.17866
                        -----------------------------------------
Magnitude (a.u.)       :      0.26277
Magnitude (Debye)      :      0.66790

Rotational constants in cm-1:     3.740760     0.483188     0.479169
Rotational constants in MHz : 112145.176126 14485.620170 14365.126502

                             ****ORCA TERMINATED NORMALLY****
TOTAL RUN TIME: 0 days 0 hours 0 minutes 14 seconds 236 msec
