                         Program Version 4.2.1 -  RELEASE  -
|  1> ! LDA zora-def2-svp nori grid5 finalgrid6 verytightscf
|  2> %Pal NProcs 18 End
|  3>
|  4> *xyz 0 1
|  5> P 0.0000000000 0.0000000000 0.0000000000
|  6> H 0.0000000000 0.0000000000 1.4141500000
|  7> H 1.4127052064 0.0000000000 -0.0639079205
|  8> O -0.2628101077 1.6275926322 -0.2511898901
|  9> H -0.9542069755 1.7138775927 -0.9120164663
| 10> **                         ****END OF INPUT****

CARTESIAN COORDINATES (ANGSTROEM)
---------------------------------
  P      0.000000    0.000000    0.000000
  H      0.000000    0.000000    1.414150
  H      1.412705    0.000000   -0.063908
  O     -0.262810    1.627593   -0.251190
  H     -0.954207    1.713878   -0.912016

 Total Charge           Charge          ....    0
 Multiplicity           Mult            ....    1
 Number of Electrons    NEL             ....   26
 Basis Dimension        Dim             ....   49

ORBITAL ENERGIES
----------------

  NO   OCC          E(Eh)            E(eV)
   0   2.0000     -76.021547     -2068.6515
   1   2.0000     -18.592843      -505.9370
   2   2.0000      -6.295347      -171.3051
   3   2.0000      -4.553650      -123.9111
   4   2.0000      -4.549868      -123.8082
   5   2.0000      -4.545325      -123.6846
   6   2.0000      -0.910938       -24.7879
   7   2.0000      -0.583800       -15.8860
   8   2.0000      -0.432228       -11.7615
   9   2.0000      -0.367109        -9.9895
  10   2.0000      -0.357180        -9.7194
  11   2.0000      -0.256180        -6.9710
  12   2.0000      -0.218086        -5.9344
  13   0.0000      -0.028681        -0.7805
  14   0.0000       0.022920         0.6237
  15   0.0000       0.048767         1.3270
  16   0.0000       0.069460         1.8901
  17   0.0000       0.306266         8.3339

MULLIKEN ATOMIC CHARGES
-----------------------
   0 P :    0.161922
   1 H :    0.015649
   2 H :    0.015649
   3 O :   -0.446302
   4 H :    0.253082
Sum of atomic charges:   -0.0000000

LOEWDIN ATOMIC CHARGES
----------------------
   0 P :    0.273143
   1 H :   -0.044582
   2 H :   -0.044582
   3 O :   -0.273649
   4 H :    0.089669

  Mayer bond orders larger than 0.100000
B(  0-P ,  1-H ) :   0.9368 B(  0-P ,  2-H ) :   0.9368 B(  0-P ,  3-O ) :   1.0631
B(  3-O ,  4-H ) :   0.9478

FINAL SINGLE POINT ENERGY      -416.383434866447

DIPOLE MOMENT
-------------
                                X             Y             Z
Electronic contribution:     -0.77720      -0.64108      -0.74284
Nuclear contribution   :      0.57117       0.55687       0.54592
                        -----------------------------------------
Total Dipole Moment    :     -0.20603      -0.08421      -0.19692
                        -----------------------------------------
Magnitude (a.u.)       :      0.29718
Magnitude (Debye)      :      0.75537

Rotational constants in cm-1:     3.740760     0.483188     0.479169
Rotational constants in MHz : 112145.176126 14485.620170 14365.126502

                             ****ORCA TERMINATED NORMALLY****
TOTAL RUN TIME: 0 days 0 hours 0 minutes 3 seconds 828 msec
