                         Program Version 4.2.1 -  RELEASE  -
|  1> ! LDA pc-3 nori grid5 finalgrid6 verytightscf
|  2> %Pal NProcs 18 End
|  3>
|  4> *xyz 0 1
|  5> P 0.0000000000 0.0000000000 0.0000000000
|  6> H 0.0000000000 0.0000000000 1.4141500000
|  7> H 1.4127052064 0.0000000000 -0.0639079205
|  8> O -0.2628101077 1.6275926322 -0.2511898901
|  9> H -0.9542069755 1.7138775927 -0.9120164663
| 10> **                         ****END OF INPUT****

CARTESIAN COORDINATES (ANGSTROEM)
---------------------------------
  P      0.000000    0.000000    0.000000
  H      0.000000    0.000000    1.414150
  H      1.412705    0.000000   -0.063908
  O     -0.262810    1.627593   -0.251190
  H     -0.954207    1.713878   -0.912016

 Total Charge           Charge          ....    0
 Multiplicity           Mult            ....    1
 Number of Electrons    NEL             ....   26
 Basis Dimension        Dim             ....  230

ORBITAL ENERGIES
----------------

  NO   OCC          E(Eh)            E(eV)
   0   2.0000     -75.994475     -2067.9148
   1   2.0000     -18.631820      -506.9976
   2   2.0000      -6.289610      -171.1490
   3   2.0000      -4.539967      -123.5388
   4   2.0000      -4.536430      -123.4425
   5   2.0000      -4.532302      -123.3302
   6   2.0000      -0.941304       -25.6142
   7   2.0000      -0.589561       -16.0428
   8   2.0000      -0.445170       -12.1137
   9   2.0000      -0.376612       -10.2481
  10   2.0000      -0.375229       -10.2105
  11   2.0000      -0.276517        -7.5244
  12   2.0000      -0.229146        -6.2354
  13   0.0000      -0.061056        -1.6614
  14   0.0000      -0.005431        -0.1478
  15   0.0000      -0.005158        -0.1403
  16   0.0000       0.014117         0.3841
  17   0.0000       0.054557         1.4846

MULLIKEN ATOMIC CHARGES
-----------------------
   0 P :    0.169786
   1 H :   -0.013768
   2 H :   -0.013762
   3 O :   -0.405428
   4 H :    0.263172
Sum of atomic charges:   -0.0000000

LOEWDIN ATOMIC CHARGES
----------------------
   0 P :    0.810513
   1 H :   -0.263317
   2 H :   -0.263317
   3 O :    0.213432
   4 H :   -0.497311

  Mayer bond orders larger than 0.100000
B(  0-P ,  1-H ) :   0.9813 B(  0-P ,  2-H ) :   0.9813 B(  0-P ,  3-O ) :   1.0229
B(  3-O ,  4-H ) :   0.9835

FINAL SINGLE POINT ENERGY      -416.628840010401

DIPOLE MOMENT
-------------
                                X             Y             Z
Electronic contribution:     -0.75164      -0.60971      -0.71840
Nuclear contribution   :      0.57117       0.55687       0.54592
                        -----------------------------------------
Total Dipole Moment    :     -0.18046      -0.05285      -0.17248
                        -----------------------------------------
Magnitude (a.u.)       :      0.25517
Magnitude (Debye)      :      0.64859

Rotational constants in cm-1:     3.740760     0.483188     0.479169
Rotational constants in MHz : 112145.176126 14485.620170 14365.126502

                             ****ORCA TERMINATED NORMALLY****
TOTAL RUN TIME: 0 days 0 hours 0 minutes 16 seconds 695 msec
