                         Program Version 4.2.1 -  RELEASE  -
|  1> ! LDA zora-def2-tzvp nori grid5 finalgrid6 verytightscf
|  2> %Pal NProcs 18 End
|  3>
|  4> *xyz 0 1
|  5> P 0.0000000000 0.0000000000 0.0000000000
|  6> H 0.0000000000 0.0000000000 1.4141500000
|  7> H 1.4127052064 0.0000000000 -0.0639079205
|  8> O -0.2628101077 1.6275926322 -0.2511898901
|  9> H -0.9542069755 1.7138775927 -0.9120164663
| 10> **                         ****END OF INPUT****

CARTESIAN COORDINATES (ANGSTROEM)
---------------------------------
  P      0.000000    0.000000    0.000000
  H      0.000000    0.000000    1.414150
  H      1.412705    0.000000   -0.063908
  O     -0.262810    1.627593   -0.251190
  H     -0.954207    1.713878   -0.912016

 Total Charge           Charge          ....    0
 Multiplicity           Mult            ....    1
 Number of Electrons    NEL             ....   26
 Basis Dimension        Dim             ....   87

ORBITAL ENERGIES
----------------

  NO   OCC          E(Eh)            E(eV)
   0   2.0000     -76.047567     -2069.3595
   1   2.0000     -18.634576      -507.0726
   2   2.0000      -6.294481      -171.2815
   3   2.0000      -4.546806      -123.7249
   4   2.0000      -4.543162      -123.6257
   5   2.0000      -4.538798      -123.5070
   6   2.0000      -0.938065       -25.5260
   7   2.0000      -0.587507       -15.9869
   8   2.0000      -0.442213       -12.0332
   9   2.0000      -0.372693       -10.1415
  10   2.0000      -0.372541       -10.1373
  11   2.0000      -0.272342        -7.4108
  12   2.0000      -0.226171        -6.1544
  13   0.0000      -0.052760        -1.4357
  14   0.0000       0.003289         0.0895
  15   0.0000       0.025411         0.6915
  16   0.0000       0.038016         1.0345
  17   0.0000       0.157474         4.2851

MULLIKEN ATOMIC CHARGES
-----------------------
   0 P :   -0.041307
   1 H :    0.082848
   2 H :    0.082846
   3 O :   -0.454046
   4 H :    0.329660
Sum of atomic charges:    0.0000000

LOEWDIN ATOMIC CHARGES
----------------------
   0 P :    0.060457
   1 H :    0.005483
   2 H :    0.005483
   3 O :   -0.231315
   4 H :    0.159891

  Mayer bond orders larger than 0.100000
B(  0-P ,  1-H ) :   0.9563 B(  0-P ,  2-H ) :   0.9563 B(  0-P ,  3-O ) :   1.1145
B(  3-O ,  4-H ) :   0.8795

FINAL SINGLE POINT ENERGY      -416.604243875456

DIPOLE MOMENT
-------------
                                X             Y             Z
Electronic contribution:     -0.77348      -0.62794      -0.73928
Nuclear contribution   :      0.57117       0.55687       0.54592
                        -----------------------------------------
Total Dipole Moment    :     -0.20230      -0.07107      -0.19336
                        -----------------------------------------
Magnitude (a.u.)       :      0.28873
Magnitude (Debye)      :      0.73390

Rotational constants in cm-1:     3.740760     0.483188     0.479169
Rotational constants in MHz : 112145.176126 14485.620170 14365.126502

                             ****ORCA TERMINATED NORMALLY****
TOTAL RUN TIME: 0 days 0 hours 0 minutes 4 seconds 452 msec
