                         Program Version 4.2.1 -  RELEASE  -
|  1> ! LDA cc-pv5z nori grid5 finalgrid6 verytightscf
|  2> %Pal NProcs 18 End
|  3>
|  4> *xyz 0 1
|  5> P 0.0000000000 0.0000000000 0.0000000000
|  6> H 0.0000000000 0.0000000000 1.4141500000
|  7> H 1.4127052064 0.0000000000 -0.0639079205
|  8> O -0.2628101077 1.6275926322 -0.2511898901
|  9> H -0.9542069755 1.7138775927 -0.9120164663
| 10> **                         ****END OF INPUT****

CARTESIAN COORDINATES (ANGSTROEM)
---------------------------------
  P      0.000000    0.000000    0.000000
  H      0.000000    0.000000    1.414150
  H      1.412705    0.000000   -0.063908
  O     -0.262810    1.627593   -0.251190
  H     -0.954207    1.713878   -0.912016

 Total Charge           Charge          ....    0
 Multiplicity           Mult            ....    1
 Number of Electrons    NEL             ....   26
 Basis Dimension        Dim             ....  351

ORBITAL ENERGIES
----------------

  NO   OCC          E(Eh)            E(eV)
   0   2.0000     -75.997538     -2067.9981
   1   2.0000     -18.629573      -506.9365
   2   2.0000      -6.290422      -171.1711
   3   2.0000      -4.540969      -123.5661
   4   2.0000      -4.537419      -123.4695
   5   2.0000      -4.533240      -123.3557
   6   2.0000      -0.940386       -25.5892
   7   2.0000      -0.589014       -16.0279
   8   2.0000      -0.444401       -12.0928
   9   2.0000      -0.375775       -10.2254
  10   2.0000      -0.374641       -10.1945
  11   2.0000      -0.275623        -7.5001
  12   2.0000      -0.228547        -6.2191
  13   0.0000      -0.058439        -1.5902
  14   0.0000      -0.002350        -0.0640
  15   0.0000       0.003186         0.0867
  16   0.0000       0.022880         0.6226
  17   0.0000       0.078963         2.1487

MULLIKEN ATOMIC CHARGES
-----------------------
   0 P :    0.184691
   1 H :   -0.027669
   2 H :   -0.027666
   3 O :   -0.413601
   4 H :    0.284245
Sum of atomic charges:    0.0000000

LOEWDIN ATOMIC CHARGES
----------------------
   0 P :    0.450310
   1 H :   -0.269481
   2 H :   -0.269480
   3 O :    0.744061
   4 H :   -0.655410

  Mayer bond orders larger than 0.100000
B(  0-P ,  1-H ) :   0.9919 B(  0-P ,  2-H ) :   0.9919 B(  0-P ,  3-O ) :   1.1344
B(  3-O ,  4-H ) :   0.9986

FINAL SINGLE POINT ENERGY      -416.626561682268

DIPOLE MOMENT
-------------
                                X             Y             Z
Electronic contribution:     -0.75350      -0.60964      -0.72018
Nuclear contribution   :      0.57117       0.55687       0.54592
                        -----------------------------------------
Total Dipole Moment    :     -0.18233      -0.05277      -0.17426
                        -----------------------------------------
Magnitude (a.u.)       :      0.25767
Magnitude (Debye)      :      0.65496

Rotational constants in cm-1:     3.740760     0.483188     0.479169
Rotational constants in MHz : 112145.176126 14485.620170 14365.126502

                             ****ORCA TERMINATED NORMALLY****
TOTAL RUN TIME: 0 days 0 hours 1 minutes 17 seconds 687 msec
