                         Program Version 4.2.1 -  RELEASE  -
|  1> ! LDA zora-def2-qzvpp nori grid5 finalgrid6 verytightscf
|  2> %Pal NProcs 18 End
|  3>
|  4> *xyz 0 1
|  5> P 0.0000000000 0.0000000000 0.0000000000
|  6> H 0.0000000000 0.0000000000 1.4141500000
|  7> H 1.4127052064 0.0000000000 -0.0639079205
|  8> O -0.2628101077 1.6275926322 -0.2511898901
|  9> H -0.9542069755 1.7138775927 -0.9120164663
| 10> **                         ****END OF INPUT****

CARTESIAN COORDINATES (ANGSTROEM)
---------------------------------
  P      0.000000    0.000000    0.000000
  H      0.000000    0.000000    1.414150
  H      1.412705    0.000000   -0.063908
  O     -0.262810    1.627593   -0.251190
  H     -0.954207    1.713878   -0.912016

 Total Charge           Charge          ....    0
 Multiplicity           Mult            ....    1
 Number of Electrons    NEL             ....   26
 Basis Dimension        Dim             ....  223

ORBITAL ENERGIES
----------------

  NO   OCC          E(Eh)            E(eV)
   0   2.0000     -76.019238     -2068.5886
   1   2.0000     -18.632510      -507.0164
   2   2.0000      -6.290986      -171.1864
   3   2.0000      -4.541405      -123.5779
   4   2.0000      -4.537832      -123.4807
   5   2.0000      -4.533638      -123.3666
   6   2.0000      -0.940333       -25.5878
   7   2.0000      -0.588882       -16.0243
   8   2.0000      -0.444268       -12.0891
   9   2.0000      -0.375570       -10.2198
  10   2.0000      -0.374468       -10.1898
  11   2.0000      -0.275427        -7.4947
  12   2.0000      -0.228382        -6.2146
  13   0.0000      -0.057501        -1.5647
  14   0.0000      -0.001733        -0.0472
  15   0.0000       0.008133         0.2213
  16   0.0000       0.026188         0.7126
  17   0.0000       0.097726         2.6593

MULLIKEN ATOMIC CHARGES
-----------------------
   0 P :    0.172813
   1 H :    0.004293
   2 H :    0.004303
   3 O :   -0.332224
   4 H :    0.150815
Sum of atomic charges:   -0.0000000

LOEWDIN ATOMIC CHARGES
----------------------
   0 P :    0.283238
   1 H :   -0.163452
   2 H :   -0.163452
   3 O :    0.458570
   4 H :   -0.414903

  Mayer bond orders larger than 0.100000
B(  0-P ,  1-H ) :   0.9806 B(  0-P ,  2-H ) :   0.9806 B(  0-P ,  3-O ) :   1.0541
B(  3-O ,  4-H ) :   1.0495

FINAL SINGLE POINT ENERGY      -416.626743899086

DIPOLE MOMENT
-------------
                                X             Y             Z
Electronic contribution:     -0.75741      -0.60911      -0.72392
Nuclear contribution   :      0.57117       0.55687       0.54592
                        -----------------------------------------
Total Dipole Moment    :     -0.18624      -0.05224      -0.17801
                        -----------------------------------------
Magnitude (a.u.)       :      0.26287
Magnitude (Debye)      :      0.66816

Rotational constants in cm-1:     3.740760     0.483188     0.479169
Rotational constants in MHz : 112145.176126 14485.620170 14365.126502

                             ****ORCA TERMINATED NORMALLY****
TOTAL RUN TIME: 0 days 0 hours 0 minutes 11 seconds 706 msec
