                         Program Version 4.2.1 -  RELEASE  -
|  1> ! LDA def2-tzvp nori grid5 finalgrid6 verytightscf
|  2> %Pal NProcs 18 End
|  3>
|  4> *xyz 0 1
|  5> P 0.0000000000 0.0000000000 0.0000000000
|  6> H 0.0000000000 0.0000000000 1.4141500000
|  7> H 1.4127052064 0.0000000000 -0.0639079205
|  8> O -0.2628101077 1.6275926322 -0.2511898901
|  9> H -0.9542069755 1.7138775927 -0.9120164663
| 10> **                         ****END OF INPUT****

CARTESIAN COORDINATES (ANGSTROEM)
---------------------------------
  P      0.000000    0.000000    0.000000
  H      0.000000    0.000000    1.414150
  H      1.412705    0.000000   -0.063908
  O     -0.262810    1.627593   -0.251190
  H     -0.954207    1.713878   -0.912016

 Total Charge           Charge          ....    0
 Multiplicity           Mult            ....    1
 Number of Electrons    NEL             ....   26
 Basis Dimension        Dim             ....   86

ORBITAL ENERGIES
----------------

  NO   OCC          E(Eh)            E(eV)
   0   2.0000     -76.005574     -2068.2168
   1   2.0000     -18.628023      -506.8943
   2   2.0000      -6.286500      -171.0644
   3   2.0000      -4.537549      -123.4730
   4   2.0000      -4.533894      -123.3735
   5   2.0000      -4.529504      -123.2541
   6   2.0000      -0.938014       -25.5247
   7   2.0000      -0.587265       -15.9803
   8   2.0000      -0.442097       -12.0301
   9   2.0000      -0.372600       -10.1390
  10   2.0000      -0.372441       -10.1346
  11   2.0000      -0.272265        -7.4087
  12   2.0000      -0.226024        -6.1504
  13   0.0000      -0.052677        -1.4334
  14   0.0000       0.003391         0.0923
  15   0.0000       0.025782         0.7016
  16   0.0000       0.038098         1.0367
  17   0.0000       0.156826         4.2674

MULLIKEN ATOMIC CHARGES
-----------------------
   0 P :   -0.048671
   1 H :    0.084524
   2 H :    0.084522
   3 O :   -0.449753
   4 H :    0.329379
Sum of atomic charges:   -0.0000000

LOEWDIN ATOMIC CHARGES
----------------------
   0 P :    0.064699
   1 H :    0.004436
   2 H :    0.004436
   3 O :   -0.232707
   4 H :    0.159135

  Mayer bond orders larger than 0.100000
B(  0-P ,  1-H ) :   0.9569 B(  0-P ,  2-H ) :   0.9569 B(  0-P ,  3-O ) :   1.1181
B(  3-O ,  4-H ) :   0.8797

FINAL SINGLE POINT ENERGY      -416.604120759925

DIPOLE MOMENT
-------------
                                X             Y             Z
Electronic contribution:     -0.77327      -0.62835      -0.73908
Nuclear contribution   :      0.57117       0.55687       0.54592
                        -----------------------------------------
Total Dipole Moment    :     -0.20210      -0.07148      -0.19316
                        -----------------------------------------
Magnitude (a.u.)       :      0.28855
Magnitude (Debye)      :      0.73344

Rotational constants in cm-1:     3.740760     0.483188     0.479169
Rotational constants in MHz : 112145.176126 14485.620170 14365.126502

                             ****ORCA TERMINATED NORMALLY****
TOTAL RUN TIME: 0 days 0 hours 0 minutes 4 seconds 418 msec
