                         Program Version 4.2.1 -  RELEASE  -
|  1> ! LDA def2-svp nori grid5 finalgrid6 verytightscf
|  2> %Pal NProcs 18 End
|  3>
|  4> *xyz 0 1
|  5> P 0.0000000000 0.0000000000 0.0000000000
|  6> H 0.0000000000 0.0000000000 1.4141500000
|  7> H 1.4127052064 0.0000000000 -0.0639079205
|  8> O -0.2628101077 1.6275926322 -0.2511898901
|  9> H -0.9542069755 1.7138775927 -0.9120164663
| 10> **                         ****END OF INPUT****

CARTESIAN COORDINATES (ANGSTROEM)
---------------------------------
  P      0.000000    0.000000    0.000000
  H      0.000000    0.000000    1.414150
  H      1.412705    0.000000   -0.063908
  O     -0.262810    1.627593   -0.251190
  H     -0.954207    1.713878   -0.912016

 Total Charge           Charge          ....    0
 Multiplicity           Mult            ....    1
 Number of Electrons    NEL             ....   26
 Basis Dimension        Dim             ....   47

ORBITAL ENERGIES
----------------

  NO   OCC          E(Eh)            E(eV)
   0   2.0000     -75.991213     -2067.8260
   1   2.0000     -18.613442      -506.4975
   2   2.0000      -6.290679      -171.1781
   3   2.0000      -4.546995      -123.7300
   4   2.0000      -4.543166      -123.6258
   5   2.0000      -4.538603      -123.5017
   6   2.0000      -0.913567       -24.8594
   7   2.0000      -0.581062       -15.8115
   8   2.0000      -0.431272       -11.7355
   9   2.0000      -0.365652        -9.9499
  10   2.0000      -0.356968        -9.7136
  11   2.0000      -0.255627        -6.9560
  12   2.0000      -0.217548        -5.9198
  13   0.0000      -0.028685        -0.7805
  14   0.0000       0.023230         0.6321
  15   0.0000       0.051451         1.4001
  16   0.0000       0.070683         1.9234
  17   0.0000       0.302441         8.2298

MULLIKEN ATOMIC CHARGES
-----------------------
   0 P :    0.198996
   1 H :   -0.002957
   2 H :   -0.002956
   3 O :   -0.400442
   4 H :    0.207359
Sum of atomic charges:    0.0000000

LOEWDIN ATOMIC CHARGES
----------------------
   0 P :    0.304408
   1 H :   -0.059553
   2 H :   -0.059552
   3 O :   -0.260366
   4 H :    0.075062

  Mayer bond orders larger than 0.100000
B(  0-P ,  1-H ) :   0.9307 B(  0-P ,  2-H ) :   0.9307 B(  0-P ,  3-O ) :   1.0741
B(  3-O ,  4-H ) :   0.9687

FINAL SINGLE POINT ENERGY      -416.377191022302

DIPOLE MOMENT
-------------
                                X             Y             Z
Electronic contribution:     -0.76257      -0.62876      -0.72886
Nuclear contribution   :      0.57117       0.55687       0.54592
                        -----------------------------------------
Total Dipole Moment    :     -0.19140      -0.07189      -0.18294
                        -----------------------------------------
Magnitude (a.u.)       :      0.27435
Magnitude (Debye)      :      0.69735

Rotational constants in cm-1:     3.740760     0.483188     0.479169
Rotational constants in MHz : 112145.176126 14485.620170 14365.126502

                             ****ORCA TERMINATED NORMALLY****
TOTAL RUN TIME: 0 days 0 hours 0 minutes 3 seconds 944 msec
