                         Program Version 4.2.1 -  RELEASE  -
|  1> ! LDA cc-pvtz nori grid5 finalgrid6 verytightscf
|  2> %Pal NProcs 18 End
|  3>
|  4> *xyz 0 1
|  5> P 0.0000000000 0.0000000000 0.0000000000
|  6> H 0.0000000000 0.0000000000 1.4141500000
|  7> H 1.4127052064 0.0000000000 -0.0639079205
|  8> O -0.2628101077 1.6275926322 -0.2511898901
|  9> H -0.9542069755 1.7138775927 -0.9120164663
| 10> **                         ****END OF INPUT****

CARTESIAN COORDINATES (ANGSTROEM)
---------------------------------
  P      0.000000    0.000000    0.000000
  H      0.000000    0.000000    1.414150
  H      1.412705    0.000000   -0.063908
  O     -0.262810    1.627593   -0.251190
  H     -0.954207    1.713878   -0.912016

 Total Charge           Charge          ....    0
 Multiplicity           Mult            ....    1
 Number of Electrons    NEL             ....   26
 Basis Dimension        Dim             ....  106

ORBITAL ENERGIES
----------------

  NO   OCC          E(Eh)            E(eV)
   0   2.0000     -76.040049     -2069.1549
   1   2.0000     -18.624122      -506.7881
   2   2.0000      -6.295302      -171.3039
   3   2.0000      -4.547682      -123.7487
   4   2.0000      -4.544080      -123.6507
   5   2.0000      -4.539641      -123.5299
   6   2.0000      -0.935182       -25.4476
   7   2.0000      -0.586260       -15.9529
   8   2.0000      -0.439332       -11.9548
   9   2.0000      -0.371049       -10.0967
  10   2.0000      -0.369961       -10.0672
  11   2.0000      -0.268735        -7.3127
  12   2.0000      -0.224627        -6.1124
  13   0.0000      -0.047156        -1.2832
  14   0.0000       0.007689         0.2092
  15   0.0000       0.027862         0.7582
  16   0.0000       0.043872         1.1938
  17   0.0000       0.167974         4.5708

MULLIKEN ATOMIC CHARGES
-----------------------
   0 P :    0.037218
   1 H :    0.048236
   2 H :    0.048236
   3 O :   -0.346138
   4 H :    0.212447
Sum of atomic charges:   -0.0000000

LOEWDIN ATOMIC CHARGES
----------------------
   0 P :    0.232463
   1 H :   -0.114634
   2 H :   -0.114634
   3 O :    0.217477
   4 H :   -0.220671

  Mayer bond orders larger than 0.100000
B(  0-P ,  1-H ) :   0.9629 B(  0-P ,  2-H ) :   0.9629 B(  0-P ,  3-O ) :   1.1493
B(  3-O ,  4-H ) :   1.0081

FINAL SINGLE POINT ENERGY      -416.603043032775

DIPOLE MOMENT
-------------
                                X             Y             Z
Electronic contribution:     -0.76115      -0.60582      -0.72749
Nuclear contribution   :      0.57117       0.55687       0.54592
                        -----------------------------------------
Total Dipole Moment    :     -0.18998      -0.04896      -0.18158
                        -----------------------------------------
Magnitude (a.u.)       :      0.26732
Magnitude (Debye)      :      0.67946

Rotational constants in cm-1:     3.740760     0.483188     0.479169
Rotational constants in MHz : 112145.176126 14485.620170 14365.126502

                             ****ORCA TERMINATED NORMALLY****
TOTAL RUN TIME: 0 days 0 hours 0 minutes 6 seconds 540 msec
