                         Program Version 4.2.1 -  RELEASE  -
|  1> ! LDA cc-pcvdz nori grid5 finalgrid6 verytightscf
|  2> %Pal NProcs 18 End
|  3>
|  4> *xyz 0 1
|  5> P 0.0000000000 0.0000000000 0.0000000000
|  6> H 0.0000000000 0.0000000000 1.4141500000
|  7> H 1.4127052064 0.0000000000 -0.0639079205
|  8> O -0.2628101077 1.6275926322 -0.2511898901
|  9> H -0.9542069755 1.7138775927 -0.9120164663
| 10> **                         ****END OF INPUT****

CARTESIAN COORDINATES (ANGSTROEM)
---------------------------------
  P      0.000000    0.000000    0.000000
  H      0.000000    0.000000    1.414150
  H      1.412705    0.000000   -0.063908
  O     -0.262810    1.627593   -0.251190
  H     -0.954207    1.713878   -0.912016

 Total Charge           Charge          ....    0
 Multiplicity           Mult            ....    1
 Number of Electrons    NEL             ....   26
 Basis Dimension        Dim             ....   60

ORBITAL ENERGIES
----------------

  NO   OCC          E(Eh)            E(eV)
   0   2.0000     -76.009262     -2068.3172
   1   2.0000     -18.626495      -506.8527
   2   2.0000      -6.282773      -170.9629
   3   2.0000      -4.533088      -123.3516
   4   2.0000      -4.529144      -123.2443
   5   2.0000      -4.524600      -123.1206
   6   2.0000      -0.926704       -25.2169
   7   2.0000      -0.581402       -15.8207
   8   2.0000      -0.430097       -11.7035
   9   2.0000      -0.363901        -9.9022
  10   2.0000      -0.357119        -9.7177
  11   2.0000      -0.253844        -6.9074
  12   2.0000      -0.216030        -5.8785
  13   0.0000      -0.030608        -0.8329
  14   0.0000       0.020988         0.5711
  15   0.0000       0.047667         1.2971
  16   0.0000       0.068253         1.8573
  17   0.0000       0.276118         7.5135

MULLIKEN ATOMIC CHARGES
-----------------------
   0 P :    0.097673
   1 H :    0.023744
   2 H :    0.023745
   3 O :   -0.328033
   4 H :    0.182871
Sum of atomic charges:   -0.0000000

LOEWDIN ATOMIC CHARGES
----------------------
   0 P :    0.185114
   1 H :   -0.037480
   2 H :   -0.037479
   3 O :   -0.153386
   4 H :    0.043230

  Mayer bond orders larger than 0.100000
B(  0-P ,  1-H ) :   0.9377 B(  0-P ,  2-H ) :   0.9377 B(  0-P ,  3-O ) :   1.1409
B(  3-O ,  4-H ) :   0.9942

FINAL SINGLE POINT ENERGY      -416.550745239113

DIPOLE MOMENT
-------------
                                X             Y             Z
Electronic contribution:     -0.76588      -0.61050      -0.73202
Nuclear contribution   :      0.57117       0.55687       0.54592
                        -----------------------------------------
Total Dipole Moment    :     -0.19471      -0.05363      -0.18610
                        -----------------------------------------
Magnitude (a.u.)       :      0.27463
Magnitude (Debye)      :      0.69806

Rotational constants in cm-1:     3.740760     0.483188     0.479169
Rotational constants in MHz : 112145.176126 14485.620170 14365.126502

                             ****ORCA TERMINATED NORMALLY****
TOTAL RUN TIME: 0 days 0 hours 0 minutes 4 seconds 776 msec
