                         Program Version 4.2.1 -  RELEASE  -
|  1> ! LDA cc-pcv5z nori grid5 finalgrid6 verytightscf
|  2> %Pal NProcs 18 End
|  3>
|  4> *xyz 0 1
|  5> P 0.0000000000 0.0000000000 0.0000000000
|  6> H 0.0000000000 0.0000000000 1.4141500000
|  7> H 1.4127052064 0.0000000000 -0.0639079205
|  8> O -0.2628101077 1.6275926322 -0.2511898901
|  9> H -0.9542069755 1.7138775927 -0.9120164663
| 10> **                         ****END OF INPUT****

CARTESIAN COORDINATES (ANGSTROEM)
---------------------------------
  P      0.000000    0.000000    0.000000
  H      0.000000    0.000000    1.414150
  H      1.412705    0.000000   -0.063908
  O     -0.262810    1.627593   -0.251190
  H     -0.954207    1.713878   -0.912016

 Total Charge           Charge          ....    0
 Multiplicity           Mult            ....    1
 Number of Electrons    NEL             ....   26
 Basis Dimension        Dim             ....  491

ORBITAL ENERGIES
----------------

  NO   OCC          E(Eh)            E(eV)
   0   2.0000     -76.018997     -2068.5821
   1   2.0000     -18.630613      -506.9648
   2   2.0000      -6.291189      -171.1920
   3   2.0000      -4.541370      -123.5770
   4   2.0000      -4.537920      -123.4831
   5   2.0000      -4.533856      -123.3725
   6   2.0000      -0.940407       -25.5898
   7   2.0000      -0.588907       -16.0250
   8   2.0000      -0.444441       -12.0938
   9   2.0000      -0.375805       -10.2262
  10   2.0000      -0.374589       -10.1931
  11   2.0000      -0.275714        -7.5026
  12   2.0000      -0.228550        -6.2192
  13   0.0000      -0.058639        -1.5956
  14   0.0000      -0.002588        -0.0704
  15   0.0000       0.003179         0.0865
  16   0.0000       0.022739         0.6187
  17   0.0000       0.078890         2.1467

MULLIKEN ATOMIC CHARGES
-----------------------
   0 P :    0.108351
   1 H :    0.011456
   2 H :    0.011458
   3 O :   -0.392416
   4 H :    0.261152
Sum of atomic charges:    0.0000000

LOEWDIN ATOMIC CHARGES
----------------------
   0 P :    0.451930
   1 H :   -0.270247
   2 H :   -0.270246
   3 O :    0.744007
   4 H :   -0.655444

  Mayer bond orders larger than 0.100000
B(  0-P ,  1-H ) :   0.9689 B(  0-P ,  2-H ) :   0.9689 B(  0-P ,  3-O ) :   1.1017
B(  3-O ,  4-H ) :   1.0099

FINAL SINGLE POINT ENERGY      -416.630785107931

DIPOLE MOMENT
-------------
                                X             Y             Z
Electronic contribution:     -0.75432      -0.60914      -0.72097
Nuclear contribution   :      0.57117       0.55687       0.54592
                        -----------------------------------------
Total Dipole Moment    :     -0.18315      -0.05227      -0.17505
                        -----------------------------------------
Magnitude (a.u.)       :      0.25869
Magnitude (Debye)      :      0.65753

Rotational constants in cm-1:     3.740760     0.483188     0.479169
Rotational constants in MHz : 112145.176126 14485.620170 14365.126502

                             ****ORCA TERMINATED NORMALLY****
TOTAL RUN TIME: 0 days 0 hours 2 minutes 17 seconds 968 msec
