                         Program Version 4.2.1 -  RELEASE  -
|  1> ! LDA cc-pcvtz nori grid5 finalgrid6 verytightscf
|  2> %Pal NProcs 18 End
|  3>
|  4> *xyz 0 1
|  5> P 0.0000000000 0.0000000000 0.0000000000
|  6> H 0.0000000000 0.0000000000 1.4141500000
|  7> H 1.4127052064 0.0000000000 -0.0639079205
|  8> O -0.2628101077 1.6275926322 -0.2511898901
|  9> H -0.9542069755 1.7138775927 -0.9120164663
| 10> **                         ****END OF INPUT****

CARTESIAN COORDINATES (ANGSTROEM)
---------------------------------
  P      0.000000    0.000000    0.000000
  H      0.000000    0.000000    1.414150
  H      1.412705    0.000000   -0.063908
  O     -0.262810    1.627593   -0.251190
  H     -0.954207    1.713878   -0.912016

 Total Charge           Charge          ....    0
 Multiplicity           Mult            ....    1
 Number of Electrons    NEL             ....   26
 Basis Dimension        Dim             ....  144

ORBITAL ENERGIES
----------------

  NO   OCC          E(Eh)            E(eV)
   0   2.0000     -76.014935     -2068.4715
   1   2.0000     -18.624011      -506.7851
   2   2.0000      -6.288143      -171.1091
   3   2.0000      -4.538065      -123.4870
   4   2.0000      -4.534637      -123.3938
   5   2.0000      -4.530409      -123.2787
   6   2.0000      -0.935062       -25.4443
   7   2.0000      -0.585237       -15.9251
   8   2.0000      -0.439473       -11.9587
   9   2.0000      -0.370533       -10.0827
  10   2.0000      -0.370024       -10.0689
  11   2.0000      -0.269297        -7.3280
  12   2.0000      -0.224405        -6.1064
  13   0.0000      -0.048548        -1.3211
  14   0.0000       0.006119         0.1665
  15   0.0000       0.028443         0.7740
  16   0.0000       0.042924         1.1680
  17   0.0000       0.165689         4.5086

MULLIKEN ATOMIC CHARGES
-----------------------
   0 P :   -0.002810
   1 H :    0.064320
   2 H :    0.064320
   3 O :   -0.341710
   4 H :    0.215881
Sum of atomic charges:   -0.0000000

LOEWDIN ATOMIC CHARGES
----------------------
   0 P :    0.215171
   1 H :   -0.108613
   2 H :   -0.108612
   3 O :    0.217211
   4 H :   -0.215157

  Mayer bond orders larger than 0.100000
B(  0-P ,  1-H ) :   0.9639 B(  0-P ,  2-H ) :   0.9639 B(  0-P ,  3-O ) :   1.1677
B(  3-O ,  4-H ) :   1.0063

FINAL SINGLE POINT ENERGY      -416.615529090365

DIPOLE MOMENT
-------------
                                X             Y             Z
Electronic contribution:     -0.76777      -0.60026      -0.73382
Nuclear contribution   :      0.57117       0.55687       0.54592
                        -----------------------------------------
Total Dipole Moment    :     -0.19660      -0.04339      -0.18790
                        -----------------------------------------
Magnitude (a.u.)       :      0.27539
Magnitude (Debye)      :      0.69999

Rotational constants in cm-1:     3.740760     0.483188     0.479169
Rotational constants in MHz : 112145.176126 14485.620170 14365.126502

                             ****ORCA TERMINATED NORMALLY****
TOTAL RUN TIME: 0 days 0 hours 0 minutes 7 seconds 484 msec
