                         Program Version 4.2.1 -  RELEASE  -
|  1> ! LDA pc-1 nori grid5 finalgrid6 verytightscf
|  2> %Pal NProcs 18 End
|  3>
|  4> *xyz 0 1
|  5> P 0.0000000000 0.0000000000 0.0000000000
|  6> H 0.0000000000 0.0000000000 1.4141500000
|  7> H 1.4127052064 0.0000000000 -0.0639079205
|  8> O -0.2628101077 1.6275926322 -0.2511898901
|  9> H -0.9542069755 1.7138775927 -0.9120164663
| 10> **                         ****END OF INPUT****

CARTESIAN COORDINATES (ANGSTROEM)
---------------------------------
  P      0.000000    0.000000    0.000000
  H      0.000000    0.000000    1.414150
  H      1.412705    0.000000   -0.063908
  O     -0.262810    1.627593   -0.251190
  H     -0.954207    1.713878   -0.912016

 Total Charge           Charge          ....    0
 Multiplicity           Mult            ....    1
 Number of Electrons    NEL             ....   26
 Basis Dimension        Dim             ....   47

ORBITAL ENERGIES
----------------

  NO   OCC          E(Eh)            E(eV)
   0   2.0000     -75.985251     -2067.6638
   1   2.0000     -18.604352      -506.2502
   2   2.0000      -6.289186      -171.1374
   3   2.0000      -4.539869      -123.5361
   4   2.0000      -4.535697      -123.4226
   5   2.0000      -4.531107      -123.2977
   6   2.0000      -0.935473       -25.4555
   7   2.0000      -0.588353       -16.0099
   8   2.0000      -0.438226       -11.9247
   9   2.0000      -0.371298       -10.1035
  10   2.0000      -0.365590        -9.9482
  11   2.0000      -0.263330        -7.1656
  12   2.0000      -0.221914        -6.0386
  13   0.0000      -0.039578        -1.0770
  14   0.0000       0.012694         0.3454
  15   0.0000       0.029760         0.8098
  16   0.0000       0.052821         1.4373
  17   0.0000       0.248030         6.7492

MULLIKEN ATOMIC CHARGES
-----------------------
   0 P :    0.186895
   1 H :    0.040857
   2 H :    0.040858
   3 O :   -0.521068
   4 H :    0.252458
Sum of atomic charges:   -0.0000000

LOEWDIN ATOMIC CHARGES
----------------------
   0 P :    0.275938
   1 H :   -0.025538
   2 H :   -0.025538
   3 O :   -0.356894
   4 H :    0.132031

  Mayer bond orders larger than 0.100000
B(  0-P ,  1-H ) :   0.9358 B(  0-P ,  2-H ) :   0.9358 B(  0-P ,  3-O ) :   0.9922
B(  3-O ,  4-H ) :   0.9460

FINAL SINGLE POINT ENERGY      -416.537023021422

DIPOLE MOMENT
-------------
                                X             Y             Z
Electronic contribution:     -0.74749      -0.70445      -0.71445
Nuclear contribution   :      0.57117       0.55687       0.54592
                        -----------------------------------------
Total Dipole Moment    :     -0.17632      -0.14758      -0.16853
                        -----------------------------------------
Magnitude (a.u.)       :      0.28508
Magnitude (Debye)      :      0.72462

Rotational constants in cm-1:     3.740760     0.483188     0.479169
Rotational constants in MHz : 112145.176126 14485.620170 14365.126502

                             ****ORCA TERMINATED NORMALLY****
TOTAL RUN TIME: 0 days 0 hours 0 minutes 4 seconds 139 msec
