                         Program Version 4.2.1 -  RELEASE  -
|  1> ! LDA cc-pcvqz nori grid5 finalgrid6 verytightscf
|  2> %Pal NProcs 18 End
|  3>
|  4> *xyz 0 1
|  5> P 0.0000000000 0.0000000000 0.0000000000
|  6> H 0.0000000000 0.0000000000 1.4141500000
|  7> H 1.4127052064 0.0000000000 -0.0639079205
|  8> O -0.2628101077 1.6275926322 -0.2511898901
|  9> H -0.9542069755 1.7138775927 -0.9120164663
| 10> **                         ****END OF INPUT****

CARTESIAN COORDINATES (ANGSTROEM)
---------------------------------
  P      0.000000    0.000000    0.000000
  H      0.000000    0.000000    1.414150
  H      1.412705    0.000000   -0.063908
  O     -0.262810    1.627593   -0.251190
  H     -0.954207    1.713878   -0.912016

 Total Charge           Charge          ....    0
 Multiplicity           Mult            ....    1
 Number of Electrons    NEL             ....   26
 Basis Dimension        Dim             ....  283

ORBITAL ENERGIES
----------------

  NO   OCC          E(Eh)            E(eV)
   0   2.0000     -76.017233     -2068.5341
   1   2.0000     -18.628686      -506.9123
   2   2.0000      -6.289900      -171.1569
   3   2.0000      -4.540084      -123.5420
   4   2.0000      -4.536652      -123.4486
   5   2.0000      -4.532568      -123.3375
   6   2.0000      -0.938687       -25.5430
   7   2.0000      -0.587620       -15.9899
   8   2.0000      -0.442904       -12.0520
   9   2.0000      -0.374073       -10.1791
  10   2.0000      -0.373263       -10.1570
  11   2.0000      -0.273823        -7.4511
  12   2.0000      -0.227261        -6.1841
  13   0.0000      -0.055573        -1.5122
  14   0.0000       0.000170         0.0046
  15   0.0000       0.015792         0.4297
  16   0.0000       0.032018         0.8713
  17   0.0000       0.114985         3.1289

MULLIKEN ATOMIC CHARGES
-----------------------
   0 P :    0.084352
   1 H :    0.031917
   2 H :    0.031931
   3 O :   -0.389813
   4 H :    0.241613
Sum of atomic charges:   -0.0000000

LOEWDIN ATOMIC CHARGES
----------------------
   0 P :    0.213585
   1 H :   -0.166472
   2 H :   -0.166472
   3 O :    0.593274
   4 H :   -0.473914

  Mayer bond orders larger than 0.100000
B(  0-P ,  1-H ) :   0.9742 B(  0-P ,  2-H ) :   0.9742 B(  0-P ,  3-O ) :   1.1215
B(  3-O ,  4-H ) :   1.0058

FINAL SINGLE POINT ENERGY      -416.627912575356

DIPOLE MOMENT
-------------
                                X             Y             Z
Electronic contribution:     -0.76117      -0.60121      -0.72752
Nuclear contribution   :      0.57117       0.55687       0.54592
                        -----------------------------------------
Total Dipole Moment    :     -0.19000      -0.04435      -0.18160
                        -----------------------------------------
Magnitude (a.u.)       :      0.26654
Magnitude (Debye)      :      0.67749

Rotational constants in cm-1:     3.740760     0.483188     0.479169
Rotational constants in MHz : 112145.176126 14485.620170 14365.126502

                             ****ORCA TERMINATED NORMALLY****
TOTAL RUN TIME: 0 days 0 hours 0 minutes 25 seconds 438 msec
