                         Program Version 4.2.1 -  RELEASE  -
|  1> ! LDA def2-qzvpp nori grid5 finalgrid6 verytightscf
|  2> %Pal NProcs 18 End
|  3>
|  4> *xyz 0 1
|  5> P 0.0000000000 0.0000000000 0.0000000000
|  6> H 0.0000000000 0.0000000000 1.4141500000
|  7> H 1.4127052064 0.0000000000 -0.0639079205
|  8> O -0.2628101077 1.6275926322 -0.2511898901
|  9> H -0.9542069755 1.7138775927 -0.9120164663
| 10> **                         ****END OF INPUT****

CARTESIAN COORDINATES (ANGSTROEM)
---------------------------------
  P      0.000000    0.000000    0.000000
  H      0.000000    0.000000    1.414150
  H      1.412705    0.000000   -0.063908
  O     -0.262810    1.627593   -0.251190
  H     -0.954207    1.713878   -0.912016

 Total Charge           Charge          ....    0
 Multiplicity           Mult            ....    1
 Number of Electrons    NEL             ....   26
 Basis Dimension        Dim             ....  217

ORBITAL ENERGIES
----------------

  NO   OCC          E(Eh)            E(eV)
   0   2.0000     -76.019987     -2068.6090
   1   2.0000     -18.632663      -507.0205
   2   2.0000      -6.290727      -171.1794
   3   2.0000      -4.540943      -123.5653
   4   2.0000      -4.537366      -123.4680
   5   2.0000      -4.533171      -123.3539
   6   2.0000      -0.940328       -25.5876
   7   2.0000      -0.588871       -16.0240
   8   2.0000      -0.444252       -12.0887
   9   2.0000      -0.375558       -10.2194
  10   2.0000      -0.374448       -10.1892
  11   2.0000      -0.275416        -7.4944
  12   2.0000      -0.228370        -6.2143
  13   0.0000      -0.057493        -1.5645
  14   0.0000      -0.001721        -0.0468
  15   0.0000       0.008159         0.2220
  16   0.0000       0.026193         0.7127
  17   0.0000       0.097745         2.6598

MULLIKEN ATOMIC CHARGES
-----------------------
   0 P :    0.104038
   1 H :    0.041774
   2 H :    0.041784
   3 O :   -0.394765
   4 H :    0.207168
Sum of atomic charges:    0.0000000

LOEWDIN ATOMIC CHARGES
----------------------
   0 P :    0.281988
   1 H :   -0.162806
   2 H :   -0.162806
   3 O :    0.458894
   4 H :   -0.415270

  Mayer bond orders larger than 0.100000
B(  0-P ,  1-H ) :   0.9778 B(  0-P ,  2-H ) :   0.9778 B(  0-P ,  3-O ) :   1.0508
B(  3-O ,  4-H ) :   1.0166

FINAL SINGLE POINT ENERGY      -416.629001498679

DIPOLE MOMENT
-------------
                                X             Y             Z
Electronic contribution:     -0.75735      -0.60898      -0.72386
Nuclear contribution   :      0.57117       0.55687       0.54592
                        -----------------------------------------
Total Dipole Moment    :     -0.18617      -0.05211      -0.17794
                        -----------------------------------------
Magnitude (a.u.)       :      0.26275
Magnitude (Debye)      :      0.66787

Rotational constants in cm-1:     3.740760     0.483188     0.479169
Rotational constants in MHz : 112145.176126 14485.620170 14365.126502

                             ****ORCA TERMINATED NORMALLY****
TOTAL RUN TIME: 0 days 0 hours 0 minutes 11 seconds 681 msec
