                         Program Version 4.2.1 -  RELEASE  -
|  1> ! LDA pc-2 nori grid5 finalgrid6 verytightscf
|  2> %Pal NProcs 18 End
|  3>
|  4> *xyz 0 1
|  5> P 0.0000000000 0.0000000000 0.0000000000
|  6> H 0.0000000000 0.0000000000 1.4141500000
|  7> H 1.4127052064 0.0000000000 -0.0639079205
|  8> O -0.2628101077 1.6275926322 -0.2511898901
|  9> H -0.9542069755 1.7138775927 -0.9120164663
| 10> **                         ****END OF INPUT****

CARTESIAN COORDINATES (ANGSTROEM)
---------------------------------
  P      0.000000    0.000000    0.000000
  H      0.000000    0.000000    1.414150
  H      1.412705    0.000000   -0.063908
  O     -0.262810    1.627593   -0.251190
  H     -0.954207    1.713878   -0.912016

 Total Charge           Charge          ....    0
 Multiplicity           Mult            ....    1
 Number of Electrons    NEL             ....   26
 Basis Dimension        Dim             ....  106

ORBITAL ENERGIES
----------------

  NO   OCC          E(Eh)            E(eV)
   0   2.0000     -75.990973     -2067.8195
   1   2.0000     -18.613204      -506.4910
   2   2.0000      -6.289062      -171.1341
   3   2.0000      -4.539331      -123.5215
   4   2.0000      -4.535722      -123.4233
   5   2.0000      -4.531430      -123.3065
   6   2.0000      -0.939749       -25.5719
   7   2.0000      -0.589461       -16.0400
   8   2.0000      -0.443844       -12.0776
   9   2.0000      -0.374753       -10.1975
  10   2.0000      -0.374479       -10.1901
  11   2.0000      -0.274381        -7.4663
  12   2.0000      -0.227953        -6.2029
  13   0.0000      -0.055901        -1.5211
  14   0.0000      -0.000915        -0.0249
  15   0.0000       0.008278         0.2252
  16   0.0000       0.026000         0.7075
  17   0.0000       0.101995         2.7754

MULLIKEN ATOMIC CHARGES
-----------------------
   0 P :    0.235656
   1 H :   -0.001992
   2 H :   -0.001991
   3 O :   -0.453879
   4 H :    0.222206
Sum of atomic charges:    0.0000000

LOEWDIN ATOMIC CHARGES
----------------------
   0 P :    0.575380
   1 H :   -0.141859
   2 H :   -0.141859
   3 O :   -0.147708
   4 H :   -0.143954

  Mayer bond orders larger than 0.100000
B(  0-P ,  1-H ) :   0.9769 B(  0-P ,  2-H ) :   0.9769 B(  0-P ,  3-O ) :   0.9338
B(  3-O ,  4-H ) :   1.0162

FINAL SINGLE POINT ENERGY      -416.617013543433

DIPOLE MOMENT
-------------
                                X             Y             Z
Electronic contribution:     -0.74326      -0.65951      -0.71040
Nuclear contribution   :      0.57117       0.55687       0.54592
                        -----------------------------------------
Total Dipole Moment    :     -0.17209      -0.10264      -0.16448
                        -----------------------------------------
Magnitude (a.u.)       :      0.25924
Magnitude (Debye)      :      0.65893

Rotational constants in cm-1:     3.740760     0.483188     0.479169
Rotational constants in MHz : 112145.176126 14485.620170 14365.126502

                             ****ORCA TERMINATED NORMALLY****
TOTAL RUN TIME: 0 days 0 hours 0 minutes 5 seconds 550 msec
