                         Program Version 4.2.1 -  RELEASE  -
|  1> ! LDA cc-pvdz nori grid5 finalgrid6 verytightscf
|  2> %Pal NProcs 18 End
|  3>
|  4> *xyz 0 1
|  5> P 0.0000000000 0.0000000000 0.0000000000
|  6> H 0.0000000000 0.0000000000 1.4141500000
|  7> H 1.4127052064 0.0000000000 -0.0639079205
|  8> O -0.2628101077 1.6275926322 -0.2511898901
|  9> H -0.9542069755 1.7138775927 -0.9120164663
| 10> **                         ****END OF INPUT****

CARTESIAN COORDINATES (ANGSTROEM)
---------------------------------
  P      0.000000    0.000000    0.000000
  H      0.000000    0.000000    1.414150
  H      1.412705    0.000000   -0.063908
  O     -0.262810    1.627593   -0.251190
  H     -0.954207    1.713878   -0.912016

 Total Charge           Charge          ....    0
 Multiplicity           Mult            ....    1
 Number of Electrons    NEL             ....   26
 Basis Dimension        Dim             ....   47

ORBITAL ENERGIES
----------------

  NO   OCC          E(Eh)            E(eV)
   0   2.0000     -76.019305     -2068.5905
   1   2.0000     -18.616555      -506.5822
   2   2.0000      -6.291758      -171.2074
   3   2.0000      -4.544345      -123.6579
   4   2.0000      -4.540397      -123.5505
   5   2.0000      -4.535835      -123.4264
   6   2.0000      -0.926064       -25.1995
   7   2.0000      -0.581492       -15.8232
   8   2.0000      -0.429466       -11.6864
   9   2.0000      -0.363549        -9.8927
  10   2.0000      -0.356463        -9.6998
  11   2.0000      -0.252976        -6.8838
  12   2.0000      -0.215377        -5.8607
  13   0.0000      -0.029492        -0.8025
  14   0.0000       0.022096         0.6012
  15   0.0000       0.047592         1.2950
  16   0.0000       0.068841         1.8733
  17   0.0000       0.277910         7.5623

MULLIKEN ATOMIC CHARGES
-----------------------
   0 P :    0.097160
   1 H :    0.023064
   2 H :    0.023065
   3 O :   -0.326178
   4 H :    0.182889
Sum of atomic charges:   -0.0000000

LOEWDIN ATOMIC CHARGES
----------------------
   0 P :    0.187626
   1 H :   -0.037966
   2 H :   -0.037966
   3 O :   -0.153550
   4 H :    0.041855

  Mayer bond orders larger than 0.100000
B(  0-P ,  1-H ) :   0.9373 B(  0-P ,  2-H ) :   0.9373 B(  0-P ,  3-O ) :   1.1395
B(  3-O ,  4-H ) :   0.9945

FINAL SINGLE POINT ENERGY      -416.540384058829

DIPOLE MOMENT
-------------
                                X             Y             Z
Electronic contribution:     -0.76566      -0.61011      -0.73181
Nuclear contribution   :      0.57117       0.55687       0.54592
                        -----------------------------------------
Total Dipole Moment    :     -0.19449      -0.05324      -0.18589
                        -----------------------------------------
Magnitude (a.u.)       :      0.27426
Magnitude (Debye)      :      0.69711

Rotational constants in cm-1:     3.740760     0.483188     0.479169
Rotational constants in MHz : 112145.176126 14485.620170 14365.126502

                             ****ORCA TERMINATED NORMALLY****
TOTAL RUN TIME: 0 days 0 hours 0 minutes 4 seconds 700 msec
