                         Program Version 4.2.1 -  RELEASE  -
|  1> ! LDA pc-4 nori grid5 finalgrid6 verytightscf
|  2> %Pal NProcs 18 End
|  3>
|  4> *xyz 0 1
|  5> P 0.0000000000 0.0000000000 0.0000000000
|  6> H 0.0000000000 0.0000000000 1.4141500000
|  7> H 1.4127052064 0.0000000000 -0.0639079205
|  8> O -0.2628101077 1.6275926322 -0.2511898901
|  9> H -0.9542069755 1.7138775927 -0.9120164663
| 10> **                         ****END OF INPUT****

CARTESIAN COORDINATES (ANGSTROEM)
---------------------------------
  P      0.000000    0.000000    0.000000
  H      0.000000    0.000000    1.414150
  H      1.412705    0.000000   -0.063908
  O     -0.262810    1.627593   -0.251190
  H     -0.954207    1.713878   -0.912016

 Total Charge           Charge          ....    0
 Multiplicity           Mult            ....    1
 Number of Electrons    NEL             ....   26
 Basis Dimension        Dim             ....  403

ORBITAL ENERGIES
----------------

  NO   OCC          E(Eh)            E(eV)
   0   2.0000     -75.996708     -2067.9756
   1   2.0000     -18.631913      -507.0001
   2   2.0000      -6.290170      -171.1642
   3   2.0000      -4.540567      -123.5551
   4   2.0000      -4.537075      -123.4601
   5   2.0000      -4.533000      -123.3492
   6   2.0000      -0.941427       -25.6175
   7   2.0000      -0.589597       -16.0438
   8   2.0000      -0.445280       -12.1167
   9   2.0000      -0.376761       -10.2522
  10   2.0000      -0.375292       -10.2122
  11   2.0000      -0.276680        -7.5288
  12   2.0000      -0.229262        -6.2385
  13   0.0000      -0.062116        -1.6903
  14   0.0000      -0.010069        -0.2740
  15   0.0000      -0.006196        -0.1686
  16   0.0000       0.011009         0.2996
  17   0.0000       0.038053         1.0355

MULLIKEN ATOMIC CHARGES
-----------------------
   0 P :    0.033041
   1 H :    0.032267
   2 H :    0.032311
   3 O :   -0.392793
   4 H :    0.295175
Sum of atomic charges:    0.0000000

LOEWDIN ATOMIC CHARGES
----------------------
   0 P :    0.979326
   1 H :   -0.361355
   2 H :   -0.361354
   3 O :    0.522199
   4 H :   -0.778816

  Mayer bond orders larger than 0.100000
B(  0-P ,  1-H ) :   0.9699 B(  0-P ,  2-H ) :   0.9699 B(  0-P ,  3-O ) :   1.0782
B(  3-O ,  4-H ) :   0.9603

FINAL SINGLE POINT ENERGY      -416.629461018632

DIPOLE MOMENT
-------------
                                X             Y             Z
Electronic contribution:     -0.75297      -0.60420      -0.71967
Nuclear contribution   :      0.57117       0.55687       0.54592
                        -----------------------------------------
Total Dipole Moment    :     -0.18179      -0.04733      -0.17376
                        -----------------------------------------
Magnitude (a.u.)       :      0.25589
Magnitude (Debye)      :      0.65043

Rotational constants in cm-1:     3.740760     0.483188     0.479169
Rotational constants in MHz : 112145.176126 14485.620170 14365.126502

                             ****ORCA TERMINATED NORMALLY****
TOTAL RUN TIME: 0 days 0 hours 1 minutes 46 seconds 95 msec
