                         Program Version 5.0.3 -  RELEASE  -
|  1>
|  2> !uks pbe nori defgrid3 verytightscf
|  3>
|  4> %pal nprocs 16 end
|  5>
|  6> %scf maxiter 400 end
|  7>
|  8> %basis
|  9>   newgto Ag "sarc-zora-tzvpp" end
| 10>   newgto H "zora-def2-tzvp" end
| 11>   delecp Ag
| 12>   delecp H
| 13> end
| 14>
| 15> *xyz 0 1
| 16> Ag 0.0000000000 0.0000000000 0.0000000000
| 17> H 0.0000000000 0.0000000000 1.9310000000
| 18> *
| 19>
| 20>                          ****END OF INPUT****

CARTESIAN COORDINATES (ANGSTROEM)
---------------------------------
  Ag     0.000000    0.000000    0.000000
  H      0.000000    0.000000    1.931000

 Total Charge           Charge          ....    0
 Multiplicity           Mult            ....    1
 Number of Electrons    NEL             ....   48
 Basis Dimension        Dim             ....  104

ORBITAL ENERGIES
----------------
                 SPIN UP ORBITALS
  NO   OCC          E(Eh)            E(eV)
   0   1.0000    -900.623520    -24507.2119
   1   1.0000    -129.947542     -3536.0524
   2   1.0000    -120.979724     -3292.0257
   3   1.0000    -120.979724     -3292.0257
   4   1.0000    -120.979388     -3292.0165
   5   1.0000     -23.733912      -645.8326
   6   1.0000     -20.095202      -546.8182
   7   1.0000     -20.095202      -546.8182
   8   1.0000     -20.092313      -546.7396
   9   1.0000     -13.387641      -364.2962
  10   1.0000     -13.387641      -364.2962
  11   1.0000     -13.385624      -364.2414
  12   1.0000     -13.385624      -364.2414
  13   1.0000     -13.385214      -364.2302
  14   1.0000      -3.237143       -88.0871
  15   1.0000      -2.094769       -57.0016
  16   1.0000      -2.093694       -56.9723
  17   1.0000      -2.093694       -56.9723
  18   1.0000      -0.317019        -8.6265
  19   1.0000      -0.299364        -8.1461
  20   1.0000      -0.299364        -8.1461
  21   1.0000      -0.297680        -8.1003
  22   1.0000      -0.297680        -8.1003
  23   1.0000      -0.206616        -5.6223
  24   0.0000      -0.109835        -2.9888
  25   0.0000      -0.020189        -0.5494
  26   0.0000      -0.020189        -0.5494
  27   0.0000       0.061211         1.6656
  28   0.0000       0.113195         3.0802

                 SPIN DOWN ORBITALS
  NO   OCC          E(Eh)            E(eV)
   0   1.0000    -900.623520    -24507.2119
   1   1.0000    -129.947542     -3536.0524
   2   1.0000    -120.979724     -3292.0257
   3   1.0000    -120.979724     -3292.0257
   4   1.0000    -120.979388     -3292.0165
   5   1.0000     -23.733912      -645.8326
   6   1.0000     -20.095202      -546.8182
   7   1.0000     -20.095202      -546.8182
   8   1.0000     -20.092313      -546.7396
   9   1.0000     -13.387641      -364.2962
  10   1.0000     -13.387641      -364.2962
  11   1.0000     -13.385624      -364.2414
  12   1.0000     -13.385624      -364.2414
  13   1.0000     -13.385214      -364.2302
  14   1.0000      -3.237143       -88.0871
  15   1.0000      -2.094769       -57.0016
  16   1.0000      -2.093694       -56.9723
  17   1.0000      -2.093694       -56.9723
  18   1.0000      -0.317019        -8.6265
  19   1.0000      -0.299364        -8.1461
  20   1.0000      -0.299364        -8.1461
  21   1.0000      -0.297680        -8.1003
  22   1.0000      -0.297680        -8.1003
  23   1.0000      -0.206616        -5.6223
  24   0.0000      -0.109835        -2.9888
  25   0.0000      -0.020189        -0.5494
  26   0.0000      -0.020189        -0.5494
  27   0.0000       0.061211         1.6656
  28   0.0000       0.113195         3.0802

MULLIKEN ATOMIC CHARGES AND SPIN POPULATIONS
--------------------------------------------
   0 Ag:    0.152036    0.000000
   1 H :   -0.152036    0.000000
Sum of atomic charges         :   -0.0000000

LOEWDIN ATOMIC CHARGES AND SPIN POPULATIONS
-------------------------------------------
   0 Ag:    0.089854    0.000000
   1 H :   -0.089854    0.000000

  Mayer bond orders larger than 0.100000
B(  0-Ag,  1-H ) :   1.0009

FINAL SINGLE POINT ENERGY     -5197.400836897558

DIPOLE MOMENT
-------------
                                X             Y             Z
Electronic contribution:     -0.00000       0.00000      -3.30535
Nuclear contribution   :      0.00000       0.00000       2.02746
                        -----------------------------------------
Total Dipole Moment    :     -0.00000       0.00000      -1.27789
                        -----------------------------------------
Magnitude (a.u.)       :      1.27789
Magnitude (Debye)      :      3.24813

Rotational constants in cm-1:     0.000000     4.527008     4.527008
Rotational constants in MHz :     0.000000 135716.290347 135716.290347

                             ****ORCA TERMINATED NORMALLY****
TOTAL RUN TIME: 0 days 0 hours 0 minutes 7 seconds 631 msec
