                         Program Version 5.0.3 -  RELEASE  -
|  1> !uks pbe nori defgrid3 verytightscf
|  2>
|  3> %pal nprocs 16 end
|  4>
|  5> %scf maxiter 400 end
|  6>
|  7> %basis
|  8>   newgto Ag "sarc-zora-tzvpp" end
|  9>   delecp Ag
| 10>   newgto F "zora-def2-qzvpp" end
| 11>   delecp F
| 12> end
| 13>
| 14> %rel
| 15>   modelpot 1, 0, 0, 0
| 16> end
| 17>
| 18>
| 19>
| 20> *xyz 0 1
| 21> Ag 0.0000000000 0.0000000000 0.0000000000
| 22> F 0.0000000000 0.0000000000 1.9870000000
| 23> *
| 24>
| 25>                          ****END OF INPUT****

CARTESIAN COORDINATES (ANGSTROEM)
---------------------------------
  Ag     0.000000    0.000000    0.000000
  F      0.000000    0.000000    1.987000

 Total Charge           Charge          ....    0
 Multiplicity           Mult            ....    1
 Number of Electrons    NEL             ....   56
 Basis Dimension        Dim             ....  156

ORBITAL ENERGIES
----------------
                 SPIN UP ORBITALS
  NO   OCC          E(Eh)            E(eV)
   0   1.0000    -900.637403    -24507.5897
   1   1.0000    -129.960716     -3536.4109
   2   1.0000    -120.993168     -3292.3915
   3   1.0000    -120.993168     -3292.3915
   4   1.0000    -120.992000     -3292.3597
   5   1.0000     -24.137170      -656.8058
   6   1.0000     -23.748062      -646.2176
   7   1.0000     -20.110202      -547.2264
   8   1.0000     -20.110202      -547.2264
   9   1.0000     -20.104585      -547.0736
  10   1.0000     -13.402811      -364.7090
  11   1.0000     -13.402811      -364.7090
  12   1.0000     -13.398898      -364.6025
  13   1.0000     -13.398898      -364.6025
  14   1.0000     -13.398003      -364.5782
  15   1.0000      -3.254187       -88.5509
  16   1.0000      -2.111742       -57.4634
  17   1.0000      -2.111742       -57.4634
  18   1.0000      -2.111384       -57.4537
  19   1.0000      -0.934295       -25.4235
  20   1.0000      -0.351266        -9.5584
  21   1.0000      -0.327231        -8.9044
  22   1.0000      -0.327231        -8.9044
  23   1.0000      -0.316875        -8.6226
  24   1.0000      -0.316875        -8.6226
  25   1.0000      -0.238682        -6.4949
  26   1.0000      -0.233771        -6.3612
  27   1.0000      -0.233771        -6.3612
  28   0.0000      -0.138278        -3.7627
  29   0.0000      -0.018201        -0.4953
  30   0.0000      -0.018201        -0.4953
  31   0.0000       0.034008         0.9254
  32   0.0000       0.118148         3.2150

                 SPIN DOWN ORBITALS
  NO   OCC          E(Eh)            E(eV)
   0   1.0000    -900.637403    -24507.5897
   1   1.0000    -129.960716     -3536.4109
   2   1.0000    -120.993168     -3292.3915
   3   1.0000    -120.993168     -3292.3915
   4   1.0000    -120.992000     -3292.3597
   5   1.0000     -24.137170      -656.8058
   6   1.0000     -23.748062      -646.2176
   7   1.0000     -20.110202      -547.2264
   8   1.0000     -20.110202      -547.2264
   9   1.0000     -20.104585      -547.0736
  10   1.0000     -13.402811      -364.7090
  11   1.0000     -13.402811      -364.7090
  12   1.0000     -13.398898      -364.6025
  13   1.0000     -13.398898      -364.6025
  14   1.0000     -13.398003      -364.5782
  15   1.0000      -3.254187       -88.5509
  16   1.0000      -2.111742       -57.4634
  17   1.0000      -2.111742       -57.4634
  18   1.0000      -2.111384       -57.4537
  19   1.0000      -0.934295       -25.4235
  20   1.0000      -0.351266        -9.5584
  21   1.0000      -0.327231        -8.9044
  22   1.0000      -0.327231        -8.9044
  23   1.0000      -0.316875        -8.6226
  24   1.0000      -0.316875        -8.6226
  25   1.0000      -0.238682        -6.4949
  26   1.0000      -0.233771        -6.3612
  27   1.0000      -0.233771        -6.3612
  28   0.0000      -0.138278        -3.7627
  29   0.0000      -0.018201        -0.4953
  30   0.0000      -0.018201        -0.4953
  31   0.0000       0.034008         0.9254
  32   0.0000       0.118148         3.2150

MULLIKEN ATOMIC CHARGES AND SPIN POPULATIONS
--------------------------------------------
   0 Ag:    0.609713    0.000000
   1 F :   -0.609713    0.000000
Sum of atomic charges         :   -0.0000000

LOEWDIN ATOMIC CHARGES AND SPIN POPULATIONS
-------------------------------------------
   0 Ag:    0.408736    0.000000
   1 F :   -0.408736    0.000000

  Mayer bond orders larger than 0.100000
B(  0-Ag,  1-F ) :   0.6866

FINAL SINGLE POINT ENERGY     -5296.642028938752

DIPOLE MOMENT
-------------
                                X             Y             Z
Electronic contribution:      0.00000       0.00000      -4.49679
Nuclear contribution   :      0.00000       0.00000       2.30630
                        -----------------------------------------
Total Dipole Moment    :      0.00000       0.00000      -2.19049
                        -----------------------------------------
Magnitude (a.u.)       :      2.19049
Magnitude (Debye)      :      5.56779

Rotational constants in cm-1:     0.000000     0.264329     0.264329
Rotational constants in MHz :     0.000000  7924.381970  7924.381970

                             ****ORCA TERMINATED NORMALLY****
TOTAL RUN TIME: 0 days 0 hours 0 minutes 4 seconds 71 msec
