                         Program Version 5.0.3 -  RELEASE  -
|  1> !uks pbe nori defgrid3 verytightscf
|  2>
|  3> %pal nprocs 16 end
|  4>
|  5> %scf maxiter 400 end
|  6>
|  7> %basis
|  8>   newgto Sr "sarc-zora-tzvpp" end
|  9>   delecp Sr
| 10>   newgto F "zora-def2-qzvpp" end
| 11>   delecp F
| 12> end
| 13>
| 14> %rel
| 15>   modelpot 1, 0, 0, 0
| 16> end
| 17>
| 18>
| 19>
| 20> *xyz 0 2
| 21> Sr 0.0000000000 0.0000000000 0.0000000000
| 22> F 0.0000000000 0.0000000000 2.0800000000
| 23> *
| 24>
| 25>                          ****END OF INPUT****

CARTESIAN COORDINATES (ANGSTROEM)
---------------------------------
  Sr     0.000000    0.000000    0.000000
  F      0.000000    0.000000    2.080000

 Total Charge           Charge          ....    0
 Multiplicity           Mult            ....    2
 Number of Electrons    NEL             ....   47
 Basis Dimension        Dim             ....  135

ORBITAL ENERGIES
----------------
                 SPIN UP ORBITALS
  NO   OCC          E(Eh)            E(eV)
   0   1.0000    -573.477682    -15605.1211
   1   1.0000     -76.559898     -2083.3007
   2   1.0000     -69.773857     -1898.6432
   3   1.0000     -69.773857     -1898.6432
   4   1.0000     -69.772670     -1898.6109
   5   1.0000     -24.148559      -657.1157
   6   1.0000     -11.771705      -320.3244
   7   1.0000      -9.278856      -252.4905
   8   1.0000      -9.278856      -252.4905
   9   1.0000      -9.276441      -252.4248
  10   1.0000      -4.772736      -129.8727
  11   1.0000      -4.772736      -129.8727
  12   1.0000      -4.771071      -129.8274
  13   1.0000      -4.771071      -129.8274
  14   1.0000      -4.770347      -129.8077
  15   1.0000      -1.419150       -38.6170
  16   1.0000      -0.967894       -26.3377
  17   1.0000      -0.812777       -22.1168
  18   1.0000      -0.812777       -22.1168
  19   1.0000      -0.785159       -21.3653
  20   1.0000      -0.278298        -7.5729
  21   1.0000      -0.275729        -7.5030
  22   1.0000      -0.275729        -7.5030
  23   1.0000      -0.120377        -3.2756
  24   0.0000      -0.053586        -1.4581
  25   0.0000      -0.053586        -1.4581
  26   0.0000      -0.042413        -1.1541
  27   0.0000      -0.042413        -1.1541
  28   0.0000      -0.038607        -1.0506

                 SPIN DOWN ORBITALS
  NO   OCC          E(Eh)            E(eV)
   0   1.0000    -573.477385    -15605.1130
   1   1.0000     -76.559638     -2083.2937
   2   1.0000     -69.773606     -1898.6363
   3   1.0000     -69.773606     -1898.6363
   4   1.0000     -69.772415     -1898.6039
   5   1.0000     -24.148648      -657.1181
   6   1.0000     -11.771270      -320.3125
   7   1.0000      -9.278555      -252.4823
   8   1.0000      -9.278555      -252.4823
   9   1.0000      -9.275650      -252.4033
  10   1.0000      -4.772497      -129.8663
  11   1.0000      -4.772497      -129.8663
  12   1.0000      -4.770459      -129.8108
  13   1.0000      -4.770459      -129.8108
  14   1.0000      -4.769509      -129.7849
  15   1.0000      -1.416437       -38.5432
  16   1.0000      -0.967642       -26.3309
  17   1.0000      -0.808778       -22.0080
  18   1.0000      -0.808778       -22.0080
  19   1.0000      -0.781911       -21.2769
  20   1.0000      -0.277782        -7.5588
  21   1.0000      -0.275621        -7.5000
  22   1.0000      -0.275621        -7.5000
  23   0.0000      -0.086441        -2.3522
  24   0.0000      -0.023694        -0.6447
  25   0.0000      -0.023694        -0.6447
  26   0.0000      -0.017210        -0.4683
  27   0.0000      -0.017210        -0.4683

MULLIKEN ATOMIC CHARGES AND SPIN POPULATIONS
--------------------------------------------
   0 Sr:    0.630890    1.006430
   1 F :   -0.630890   -0.006430
Sum of atomic charges         :   -0.0000000

LOEWDIN ATOMIC CHARGES AND SPIN POPULATIONS
-------------------------------------------
   0 Sr:    0.483864    1.001961
   1 F :   -0.483864   -0.001961

  Mayer bond orders larger than 0.100000
B(  0-Sr,  1-F ) :   0.6720

FINAL SINGLE POINT ENERGY     -3231.984864566400

DIPOLE MOMENT
-------------
                                X             Y             Z
Electronic contribution:      0.00000      -0.00000      -3.67503
Nuclear contribution   :      0.00000       0.00000       2.45737
                        -----------------------------------------
Total Dipole Moment    :      0.00000      -0.00000      -1.21765
                        -----------------------------------------
Magnitude (a.u.)       :      1.21765
Magnitude (Debye)      :      3.09503

Rotational constants in cm-1:     0.000000     0.249568     0.249568
Rotational constants in MHz :     0.000000  7481.873023  7481.873023

                             ****ORCA TERMINATED NORMALLY****
TOTAL RUN TIME: 0 days 0 hours 0 minutes 3 seconds 910 msec
