                         Program Version 4.2.1 -  RELEASE  -
|  1>
|  2> ! pbe def2-qzvppd nori grid5 finalgrid6 tightscf
|  3> %pal nprocs 18 end
|  4> *xyzfile 0 1 ../xyzfiles/H2O.xyz
|  5>
|  6>                          ****END OF INPUT****

CARTESIAN COORDINATES (ANGSTROEM)
---------------------------------
  O      0.000000    0.000000    0.117300
  H      0.000000    0.757200   -0.469200
  H      0.000000   -0.757200   -0.469200

 Total Charge           Charge          ....    0
 Multiplicity           Mult            ....    1
 Number of Electrons    NEL             ....   10
 Basis Dimension        Dim             ....  132

ORBITAL ENERGIES
----------------

  NO   OCC          E(Eh)            E(eV)
   0   2.0000     -18.756722      -510.3963
   1   2.0000      -0.932149       -25.3651
   2   2.0000      -0.485278       -13.2051
   3   2.0000      -0.343201        -9.3390
   4   2.0000      -0.266481        -7.2513
   5   0.0000      -0.025229        -0.6865
   6   0.0000       0.030646         0.8339
   7   0.0000       0.056983         1.5506
   8   0.0000       0.057938         1.5766
   9   0.0000       0.109947         2.9918

MULLIKEN ATOMIC CHARGES
-----------------------
   0 O :   -0.367868
   1 H :    0.183934
   2 H :    0.183934
Sum of atomic charges:   -0.0000000

LOEWDIN ATOMIC CHARGES
----------------------
   0 O :    0.852002
   1 H :   -0.426001
   2 H :   -0.426001

  Mayer bond orders larger than 0.100000
B(  0-O ,  1-H ) :   1.0409 B(  0-O ,  2-H ) :   1.0409

FINAL SINGLE POINT ENERGY       -76.387682143484

DIPOLE MOMENT
-------------
                                X             Y             Z
Electronic contribution:      0.00000       0.00000       0.26988
Nuclear contribution   :      0.00000       0.00000      -0.97636
                        -----------------------------------------
Total Dipole Moment    :      0.00000       0.00000      -0.70648
                        -----------------------------------------
Magnitude (a.u.)       :      0.70648
Magnitude (Debye)      :      1.79574

Rotational constants in cm-1:    27.372330    14.584286     9.514730
Rotational constants in MHz : 820601.811463 437225.885101 285244.437146

                             ****ORCA TERMINATED NORMALLY****
TOTAL RUN TIME: 0 days 0 hours 0 minutes 4 seconds 699 msec
