                         Program Version 4.2.1 -  RELEASE  -
|  1>
|  2> ! pbe def2-qzvppd nori grid5 finalgrid6 tightscf
|  3> %pal nprocs 18 end
|  4> *xyzfile 0 1 ../xyzfiles/LiH.xyz
|  5>
|  6>                          ****END OF INPUT****

CARTESIAN COORDINATES (ANGSTROEM)
---------------------------------
  Li     0.000000    0.000000    0.000000
  H      0.000000    0.000000    1.594900

 Total Charge           Charge          ....    0
 Multiplicity           Mult            ....    1
 Number of Electrons    NEL             ....    4
 Basis Dimension        Dim             ....   68

ORBITAL ENERGIES
----------------

  NO   OCC          E(Eh)            E(eV)
   0   2.0000      -1.868359       -50.8406
   1   2.0000      -0.160295        -4.3618
   2   0.0000      -0.058605        -1.5947
   3   0.0000      -0.015521        -0.4224
   4   0.0000      -0.015521        -0.4224
   5   0.0000       0.029290         0.7970
   6   0.0000       0.035672         0.9707

MULLIKEN ATOMIC CHARGES
-----------------------
   0 Li:    0.068097
   1 H :   -0.068097
Sum of atomic charges:   -0.0000000

LOEWDIN ATOMIC CHARGES
----------------------
   0 Li:    0.186923
   1 H :   -0.186923

  Mayer bond orders larger than 0.100000
B(  0-Li,  1-H ) :   1.0246

FINAL SINGLE POINT ENERGY        -8.047082140485

DIPOLE MOMENT
-------------
                                X             Y             Z
Electronic contribution:     -0.00000       0.00000      -3.69169
Nuclear contribution   :      0.00000       0.00000       1.48516
                        -----------------------------------------
Total Dipole Moment    :     -0.00000       0.00000      -2.20653
                        -----------------------------------------
Magnitude (a.u.)       :      2.20653
Magnitude (Debye)      :      5.60856

Rotational constants in cm-1:     0.000000     7.529392     7.529392
Rotational constants in MHz :     0.000000 225725.492015 225725.492015

                             ****ORCA TERMINATED NORMALLY****
TOTAL RUN TIME: 0 days 0 hours 0 minutes 3 seconds 347 msec
