                         Program Version 5.0.1 -  RELEASE  -
|  1> !uks pbe nori verytightscf soscf notrah defgrid3
|  2>
|  3> %pal
|  4>   nprocs 32
|  5> end
|  6> %coords
|  7>   charge 0
|  8>   mult 2
|  9>   units bohrs
| 10>   coords
| 11>     Ag 0.0 0.0 0.0
| 12>   end
| 13> end
| 14> %basis
| 15>   gtoname "Ag_ano-r3.basis"
| 16>   delECP Ag
| 17> end
| 18> %rel
| 19>   method zora
| 20>   modelpot 1, 0, 0, 0
| 21>   c 137.035999084
| 22> endd                         ****END OF INPUT****

CARTESIAN COORDINATES (ANGSTROEM)
---------------------------------
  Ag     0.000000    0.000000    0.000000

 Total Charge           Charge          ....    0
 Multiplicity           Mult            ....    2
 Number of Electrons    NEL             ....   47
 Basis Dimension        Dim             ....  101

ORBITAL ENERGIES
----------------
                 SPIN UP ORBITALS
  NO   OCC          E(Eh)            E(eV)
   0   1.0000    -959.727500    -26115.5130
   1   1.0000    -138.177884     -3760.0114
   2   1.0000    -124.325341     -3383.0645
   3   1.0000    -124.325341     -3383.0645
   4   1.0000    -124.325341     -3383.0645
   5   1.0000     -25.206319      -685.8988
   6   1.0000     -20.614692      -560.9543
   7   1.0000     -20.614692      -560.9543
   8   1.0000     -20.614692      -560.9543
   9   1.0000     -13.226362      -359.9076
  10   1.0000     -13.226362      -359.9076
  11   1.0000     -13.226362      -359.9076
  12   1.0000     -13.226362      -359.9076
  13   1.0000     -13.226362      -359.9076
  14   1.0000      -3.488591       -94.9294
  15   1.0000      -2.155728       -58.6603
  16   1.0000      -2.155728       -58.6603
  17   1.0000      -2.155728       -58.6603
  18   1.0000      -0.268165        -7.2972
  19   1.0000      -0.268165        -7.2972
  20   1.0000      -0.268165        -7.2972
  21   1.0000      -0.268165        -7.2972
  22   1.0000      -0.268165        -7.2972
  23   1.0000      -0.170339        -4.6352
  24   0.0000       0.067506         1.8369
  25   0.0000       0.067506         1.8369
  26   0.0000       0.067506         1.8369
  27   0.0000       0.086075         2.3422
  28   0.0000       0.418366        11.3843

                 SPIN DOWN ORBITALS
  NO   OCC          E(Eh)            E(eV)
   0   1.0000    -959.726829    -26115.4947
   1   1.0000    -138.178062     -3760.0162
   2   1.0000    -124.325365     -3383.0652
   3   1.0000    -124.325365     -3383.0652
   4   1.0000    -124.325365     -3383.0652
   5   1.0000     -25.205925      -685.8881
   6   1.0000     -20.614319      -560.9441
   7   1.0000     -20.614319      -560.9441
   8   1.0000     -20.614319      -560.9441
   9   1.0000     -13.226205      -359.9033
  10   1.0000     -13.226205      -359.9033
  11   1.0000     -13.226205      -359.9033
  12   1.0000     -13.226205      -359.9033
  13   1.0000     -13.226205      -359.9033
  14   1.0000      -3.488820       -94.9356
  15   1.0000      -2.155298       -58.6486
  16   1.0000      -2.155298       -58.6486
  17   1.0000      -2.155298       -58.6486
  18   1.0000      -0.260568        -7.0904
  19   1.0000      -0.260568        -7.0904
  20   1.0000      -0.260568        -7.0904
  21   1.0000      -0.260568        -7.0904
  22   1.0000      -0.260568        -7.0904
  23   0.0000      -0.141324        -3.8456
  24   0.0000       0.097795         2.6611
  25   0.0000       0.097795         2.6611
  26   0.0000       0.097795         2.6611
  27   0.0000       0.115859         3.1527

MULLIKEN ATOMIC CHARGES AND SPIN POPULATIONS
--------------------------------------------
   0 Ag:   -0.000000    1.000000
Sum of atomic charges         :   -0.0000000

LOEWDIN ATOMIC CHARGES AND SPIN POPULATIONS
-------------------------------------------
   0 Ag:    0.000000    1.000000

FINAL SINGLE POINT ENERGY     -5394.763520645878

DIPOLE MOMENT
-------------
                                X             Y             Z
Electronic contribution:     -0.00000      -0.00000       0.00000
Nuclear contribution   :      0.00000       0.00000       0.00000
                        -----------------------------------------
Total Dipole Moment    :     -0.00000      -0.00000       0.00000
                        -----------------------------------------
Magnitude (a.u.)       :      0.00000
Magnitude (Debye)      :      0.00000

Rotational constants in cm-1:     0.000000     0.000000     0.000000
Rotational constants in MHz :     0.000000     0.000000     0.000000

                             ****ORCA TERMINATED NORMALLY****
TOTAL RUN TIME: 0 days 0 hours 16 minutes 21 seconds 776 msec
