                         Program Version 5.0.1 -  RELEASE  -
|  1> !uks pbe nori verytightscf soscf notrah defgrid3
|  2>
|  3> %pal
|  4>   nprocs 32
|  5> end
|  6> %coords
|  7>   charge 0
|  8>   mult 6
|  9>   units bohrs
| 10>   coords
| 11>     Tc 0.0 0.0 0.0
| 12>   end
| 13> end
| 14> %basis
| 15>   gtoname "Tc_ano-r3.basis"
| 16>   delECP Tc
| 17> end
| 18> %rel
| 19>   method zora
| 20>   modelpot 1, 0, 0, 0
| 21>   c 137.035999084
| 22> endd                         ****END OF INPUT****

CARTESIAN COORDINATES (ANGSTROEM)
---------------------------------
  Tc     0.000000    0.000000    0.000000

 Total Charge           Charge          ....    0
 Multiplicity           Mult            ....    6
 Number of Electrons    NEL             ....   43
 Basis Dimension        Dim             ....  101

ORBITAL ENERGIES
----------------
                 SPIN UP ORBITALS
  NO   OCC          E(Eh)            E(eV)
   0   1.0000    -786.629900    -21405.2878
   1   1.0000    -110.085649     -2995.5828
   2   1.0000     -98.773113     -2687.7530
   3   1.0000     -98.765450     -2687.5445
   4   1.0000     -98.765450     -2687.5445
   5   1.0000     -18.987940      -516.6881
   6   1.0000     -15.252642      -415.0455
   7   1.0000     -15.237505      -414.6336
   8   1.0000     -15.237504      -414.6336
   9   1.0000      -9.095858      -247.5109
  10   1.0000      -9.093279      -247.4407
  11   1.0000      -9.093278      -247.4407
  12   1.0000      -9.085545      -247.2302
  13   1.0000      -9.077720      -247.0173
  14   1.0000      -2.608927       -70.9925
  15   1.0000      -1.616726       -43.9933
  16   1.0000      -1.578248       -42.9463
  17   1.0000      -1.578245       -42.9462
  18   1.0000      -0.207485        -5.6460
  19   1.0000      -0.201600        -5.4858
  20   1.0000      -0.201598        -5.4858
  21   1.0000      -0.188207        -5.1214
  22   1.0000      -0.169398        -4.6096
  23   1.0000      -0.162941        -4.4338
  24   0.0000       0.008635         0.2350
  25   0.0000       0.022502         0.6123
  26   0.0000       0.022504         0.6124
  27   0.0000       0.090059         2.4506
  28   0.0000       0.210301         5.7226

                 SPIN DOWN ORBITALS
  NO   OCC          E(Eh)            E(eV)
   0   1.0000    -786.629692    -21405.2821
   1   1.0000    -110.069940     -2995.1553
   2   1.0000     -98.759342     -2687.3783
   3   1.0000     -98.754698     -2687.2520
   4   1.0000     -98.754698     -2687.2520
   5   1.0000     -18.978975      -516.4442
   6   1.0000     -15.240932      -414.7268
   7   1.0000     -15.228283      -414.3826
   8   1.0000     -15.228282      -414.3826
   9   1.0000      -9.079668      -247.0703
  10   1.0000      -9.076733      -246.9905
  11   1.0000      -9.076732      -246.9904
  12   1.0000      -9.068959      -246.7789
  13   1.0000      -9.067836      -246.7484
  14   1.0000      -2.520984       -68.5995
  15   1.0000      -1.502440       -40.8835
  16   1.0000      -1.491064       -40.5739
  17   1.0000      -1.491063       -40.5739
  18   1.0000      -0.104453        -2.8423
  19   0.0000      -0.100775        -2.7422
  20   0.0000      -0.090119        -2.4523
  21   0.0000      -0.088111        -2.3976
  22   0.0000      -0.088106        -2.3975
  23   0.0000      -0.069679        -1.8961

MULLIKEN ATOMIC CHARGES AND SPIN POPULATIONS
--------------------------------------------
   0 Tc:   -0.000000    5.000000
Sum of atomic charges         :   -0.0000000

LOEWDIN ATOMIC CHARGES AND SPIN POPULATIONS
-------------------------------------------
   0 Tc:   -0.000000    5.000000

FINAL SINGLE POINT ENERGY     -4339.718052309643

DIPOLE MOMENT
-------------
                                X             Y             Z
Electronic contribution:      0.00000      -0.00000       0.00000
Nuclear contribution   :      0.00000       0.00000       0.00000
                        -----------------------------------------
Total Dipole Moment    :      0.00000      -0.00000       0.00000
                        -----------------------------------------
Magnitude (a.u.)       :      0.00000
Magnitude (Debye)      :      0.00000

Rotational constants in cm-1:     0.000000     0.000000     0.000000
Rotational constants in MHz :     0.000000     0.000000     0.000000

                             ****ORCA TERMINATED NORMALLY****
TOTAL RUN TIME: 0 days 6 hours 30 minutes 28 seconds 245 msec
