                         Program Version 5.0.3 -  RELEASE  -
|  1>
|  2> !uks pbe nori defgrid3 verytightscf
|  3>
|  4> %pal nprocs 16 end
|  5>
|  6> %scf maxiter 400 end
|  7>
|  8> %basis
|  9>
| 10>   newgto F "zora-def2-tzvp" end
| 11>   delecp Sr
| 12>   delecp F
| 13> end
| 14>
| 15> *xyz 0 2
| 16> Sr 0.0000000000 0.0000000000 0.0000000000
| 17> F 0.0000000000 0.0000000000 2.0800000000
| 18> *
| 19>
| 20>                          ****END OF INPUT****

CARTESIAN COORDINATES (ANGSTROEM)
---------------------------------
  Sr     0.000000    0.000000    0.000000
  F      0.000000    0.000000    2.080000

 Total Charge           Charge          ....    0
 Multiplicity           Mult            ....    2
 Number of Electrons    NEL             ....   47
 Basis Dimension        Dim             ....   55

ORBITAL ENERGIES
----------------
                 SPIN UP ORBITALS
  NO   OCC          E(Eh)            E(eV)
   0   1.0000     -67.757032     -1843.7626
   1   1.0000     -24.732035      -672.9929
   2   1.0000     -15.091804      -410.6689
   3   1.0000     -12.989907      -353.4733
   4   1.0000     -12.929863      -351.8394
   5   1.0000     -12.929777      -351.8371
   6   1.0000      -6.040568      -164.3722
   7   1.0000      -4.974198      -135.3548
   8   1.0000      -4.973908      -135.3469
   9   1.0000      -4.780763      -130.0912
  10   1.0000      -4.780326      -130.0793
  11   1.0000      -2.266186       -61.6660
  12   1.0000      -2.113341       -57.5069
  13   1.0000      -2.002480       -54.4903
  14   1.0000      -2.002268       -54.4845
  15   1.0000      -1.698740       -46.2251
  16   1.0000      -1.099690       -29.9241
  17   1.0000      -1.003032       -27.2939
  18   1.0000      -1.000767       -27.2323
  19   1.0000      -0.546182       -14.8624
  20   1.0000      -0.288234        -7.8433
  21   1.0000      -0.287778        -7.8308
  22   1.0000      -0.277567        -7.5530
  23   1.0000      -0.273557        -7.4439
  24   0.0000      -0.260463        -7.0875
  25   0.0000      -0.255143        -6.9428
  26   0.0000      -0.248183        -6.7534
  27   0.0000      -0.230154        -6.2628
  28   0.0000      -0.165294        -4.4979

                 SPIN DOWN ORBITALS
  NO   OCC          E(Eh)            E(eV)
   0   1.0000     -67.756939     -1843.7600
   1   1.0000     -24.731374      -672.9749
   2   1.0000     -15.091718      -410.6665
   3   1.0000     -12.989755      -353.4692
   4   1.0000     -12.929866      -351.8395
   5   1.0000     -12.929546      -351.8308
   6   1.0000      -6.040169      -164.3614
   7   1.0000      -4.974094      -135.3520
   8   1.0000      -4.972833      -135.3177
   9   1.0000      -4.780144      -130.0743
  10   1.0000      -4.780104      -130.0732
  11   1.0000      -2.265315       -61.6423
  12   1.0000      -2.112121       -57.4737
  13   1.0000      -2.002419       -54.4886
  14   1.0000      -2.000680       -54.4413
  15   1.0000      -1.697801       -46.1995
  16   1.0000      -1.098890       -29.9023
  17   1.0000      -1.002322       -27.2746
  18   1.0000      -0.998434       -27.1688
  19   1.0000      -0.544606       -14.8195
  20   1.0000      -0.284493        -7.7414
  21   1.0000      -0.274177        -7.4607
  22   1.0000      -0.271578        -7.3900
  23   0.0000      -0.260884        -7.0990
  24   0.0000      -0.259144        -7.0517
  25   0.0000      -0.249953        -6.8016
  26   0.0000      -0.244888        -6.6637
  27   0.0000      -0.225599        -6.1388

MULLIKEN ATOMIC CHARGES AND SPIN POPULATIONS
--------------------------------------------
   0 Sr:    2.882353    0.955433
   1 F :   -2.882353    0.044567
Sum of atomic charges         :   -0.0000000

LOEWDIN ATOMIC CHARGES AND SPIN POPULATIONS
-------------------------------------------
   0 Sr:    3.071050    0.956881
   1 F :   -3.071050    0.043119

  Mayer bond orders larger than 0.100000
B(  0-Sr,  1-F ) :   1.0176

FINAL SINGLE POINT ENERGY      -622.696936130192

DIPOLE MOMENT
-------------
                                X             Y             Z
Electronic contribution:      0.06512       0.07200       0.36924
Nuclear contribution   :      0.00000       0.00000       2.45737
                        -----------------------------------------
Total Dipole Moment    :      0.06512       0.07200       2.82661
                        -----------------------------------------
Magnitude (a.u.)       :      2.82828
Magnitude (Debye)      :      7.18891

Rotational constants in cm-1:     0.000000     0.249568     0.249568
Rotational constants in MHz :     0.000000  7481.873023  7481.873023

                             ****ORCA TERMINATED NORMALLY****
TOTAL RUN TIME: 0 days 0 hours 0 minutes 16 seconds 383 msec
