                         Program Version 5.0.1 -  RELEASE  -
|  1> !uks pbe nori verytightscf soscf notrah
|  2>
|  3> %pal
|  4>   nprocs 32
|  5> end
|  6> %coords
|  7>   charge 0
|  8>   mult 2
|  9>   units bohrs
| 10>   coords
| 11>     Ag 0.0 0.0 0.0
| 12>   end
| 13> end
| 14> %basis
| 15>   gtoname "Ag_sapporo-qzp-2012-diffuse.basis"
| 16>   delECP Ag
| 17> end
| 18> %rel
| 19>   method zora
| 20>   modelpot 1, 0, 0, 0
| 21>   c 137.035999084
| 22> endd                         ****END OF INPUT****

CARTESIAN COORDINATES (ANGSTROEM)
---------------------------------
  Ag     0.000000    0.000000    0.000000

 Total Charge           Charge          ....    0
 Multiplicity           Mult            ....    2
 Number of Electrons    NEL             ....   47
 Basis Dimension        Dim             ....  150

ORBITAL ENERGIES
----------------
                 SPIN UP ORBITALS
  NO   OCC          E(Eh)            E(eV)
   0   1.0000    -957.628251    -26058.3895
   1   1.0000    -137.488478     -3741.2517
   2   1.0000    -124.644210     -3391.7414
   3   1.0000    -124.644210     -3391.7414
   4   1.0000    -124.644210     -3391.7414
   5   1.0000     -25.000751      -680.3050
   6   1.0000     -20.623372      -561.1905
   7   1.0000     -20.623372      -561.1905
   8   1.0000     -20.623372      -561.1905
   9   1.0000     -13.236942      -360.1955
  10   1.0000     -13.236942      -360.1955
  11   1.0000     -13.236942      -360.1955
  12   1.0000     -13.236942      -360.1955
  13   1.0000     -13.236942      -360.1955
  14   1.0000      -3.464620       -94.2771
  15   1.0000      -2.164953       -58.9114
  16   1.0000      -2.164953       -58.9114
  17   1.0000      -2.164953       -58.9114
  18   1.0000      -0.277318        -7.5462
  19   1.0000      -0.277318        -7.5462
  20   1.0000      -0.277318        -7.5462
  21   1.0000      -0.277318        -7.5462
  22   1.0000      -0.277318        -7.5462
  23   1.0000      -0.172182        -4.6853
  24   0.0000      -0.031833        -0.8662
  25   0.0000      -0.031833        -0.8662
  26   0.0000      -0.031833        -0.8662
  27   0.0000       0.003716         0.1011
  28   0.0000       0.069941         1.9032

                 SPIN DOWN ORBITALS
  NO   OCC          E(Eh)            E(eV)
   0   1.0000    -957.627766    -26058.3763
   1   1.0000    -137.488748     -3741.2590
   2   1.0000    -124.644291     -3391.7436
   3   1.0000    -124.644291     -3391.7436
   4   1.0000    -124.644291     -3391.7436
   5   1.0000     -25.000361      -680.2944
   6   1.0000     -20.622993      -561.1802
   7   1.0000     -20.622993      -561.1802
   8   1.0000     -20.622993      -561.1802
   9   1.0000     -13.236790      -360.1914
  10   1.0000     -13.236790      -360.1914
  11   1.0000     -13.236790      -360.1914
  12   1.0000     -13.236790      -360.1914
  13   1.0000     -13.236790      -360.1914
  14   1.0000      -3.464786       -94.2816
  15   1.0000      -2.164602       -58.9018
  16   1.0000      -2.164602       -58.9018
  17   1.0000      -2.164602       -58.9018
  18   1.0000      -0.269891        -7.3441
  19   1.0000      -0.269891        -7.3441
  20   1.0000      -0.269891        -7.3441
  21   1.0000      -0.269891        -7.3441
  22   1.0000      -0.269891        -7.3441
  23   0.0000      -0.143518        -3.9053
  24   0.0000      -0.003680        -0.1001
  25   0.0000      -0.003680        -0.1001
  26   0.0000      -0.003680        -0.1001
  27   0.0000       0.021568         0.5869

MULLIKEN ATOMIC CHARGES AND SPIN POPULATIONS
--------------------------------------------
   0 Ag:   -0.000000    1.000000
Sum of atomic charges         :   -0.0000000

LOEWDIN ATOMIC CHARGES AND SPIN POPULATIONS
-------------------------------------------
   0 Ag:   -0.000000    1.000000

FINAL SINGLE POINT ENERGY     -5378.918291975102

DIPOLE MOMENT
-------------
                                X             Y             Z
Electronic contribution:     -0.00000      -0.00000       0.00000
Nuclear contribution   :      0.00000       0.00000       0.00000
                        -----------------------------------------
Total Dipole Moment    :     -0.00000      -0.00000       0.00000
                        -----------------------------------------
Magnitude (a.u.)       :      0.00000
Magnitude (Debye)      :      0.00000

Rotational constants in cm-1:     0.000000     0.000000     0.000000
Rotational constants in MHz :     0.000000     0.000000     0.000000

                             ****ORCA TERMINATED NORMALLY****
TOTAL RUN TIME: 0 days 0 hours 4 minutes 39 seconds 295 msec
