                         Program Version 5.0.1 -  RELEASE  -
|  1> !uks pbe nori verytightscf soscf notrah
|  2>
|  3> %pal
|  4>   nprocs 32
|  5> end
|  6> %coords
|  7>   charge 0
|  8>   mult 2
|  9>   units bohrs
| 10>   coords
| 11>     Ag 0.0 0.0 0.0
| 12>   end
| 13> end
| 14> %basis
| 15>   gtoname "Ag_sarc-zora-tzvpp.basis"
| 16>   delECP Ag
| 17> end
| 18> %rel
| 19>   method zora
| 20>   modelpot 1, 0, 0, 0
| 21>   c 137.035999084
| 22> endd                         ****END OF INPUT****

CARTESIAN COORDINATES (ANGSTROEM)
---------------------------------
  Ag     0.000000    0.000000    0.000000

 Total Charge           Charge          ....    0
 Multiplicity           Mult            ....    2
 Number of Electrons    NEL             ....   47
 Basis Dimension        Dim             ....   98

ORBITAL ENERGIES
----------------
                 SPIN UP ORBITALS
  NO   OCC          E(Eh)            E(eV)
   0   1.0000    -963.994682    -26231.6289
   1   1.0000    -138.673738     -3773.5043
   2   1.0000    -124.248275     -3380.9674
   3   1.0000    -124.248275     -3380.9674
   4   1.0000    -124.248275     -3380.9674
   5   1.0000     -25.325237      -689.1347
   6   1.0000     -20.624228      -561.2138
   7   1.0000     -20.624228      -561.2138
   8   1.0000     -20.624228      -561.2138
   9   1.0000     -13.233937      -360.1137
  10   1.0000     -13.233937      -360.1137
  11   1.0000     -13.233937      -360.1137
  12   1.0000     -13.233937      -360.1137
  13   1.0000     -13.233937      -360.1137
  14   1.0000      -3.520621       -95.8010
  15   1.0000      -2.165577       -58.9284
  16   1.0000      -2.165577       -58.9284
  17   1.0000      -2.165577       -58.9284
  18   1.0000      -0.273117        -7.4319
  19   1.0000      -0.273117        -7.4319
  20   1.0000      -0.273117        -7.4319
  21   1.0000      -0.273117        -7.4319
  22   1.0000      -0.273117        -7.4319
  23   1.0000      -0.174560        -4.7500
  24   0.0000      -0.028253        -0.7688
  25   0.0000      -0.028253        -0.7688
  26   0.0000      -0.028253        -0.7688
  27   0.0000       0.113108         3.0778
  28   0.0000       0.115917         3.1543

                 SPIN DOWN ORBITALS
  NO   OCC          E(Eh)            E(eV)
   0   1.0000    -963.994008    -26231.6105
   1   1.0000    -138.673868     -3773.5078
   2   1.0000    -124.248258     -3380.9670
   3   1.0000    -124.248258     -3380.9670
   4   1.0000    -124.248258     -3380.9670
   5   1.0000     -25.324832      -689.1237
   6   1.0000     -20.623839      -561.2032
   7   1.0000     -20.623839      -561.2032
   8   1.0000     -20.623839      -561.2032
   9   1.0000     -13.233770      -360.1092
  10   1.0000     -13.233770      -360.1092
  11   1.0000     -13.233770      -360.1092
  12   1.0000     -13.233770      -360.1092
  13   1.0000     -13.233770      -360.1092
  14   1.0000      -3.520904       -95.8087
  15   1.0000      -2.165193       -58.9179
  16   1.0000      -2.165193       -58.9179
  17   1.0000      -2.165193       -58.9179
  18   1.0000      -0.265398        -7.2218
  19   1.0000      -0.265398        -7.2218
  20   1.0000      -0.265398        -7.2218
  21   1.0000      -0.265398        -7.2218
  22   1.0000      -0.265398        -7.2218
  23   0.0000      -0.146044        -3.9741
  24   0.0000      -0.000366        -0.0100
  25   0.0000      -0.000366        -0.0100
  26   0.0000      -0.000366        -0.0100
  27   0.0000       0.141156         3.8410

MULLIKEN ATOMIC CHARGES AND SPIN POPULATIONS
--------------------------------------------
   0 Ag:   -0.000000    1.000000
Sum of atomic charges         :   -0.0000000

LOEWDIN ATOMIC CHARGES AND SPIN POPULATIONS
-------------------------------------------
   0 Ag:   -0.000000    1.000000

FINAL SINGLE POINT ENERGY     -5404.993051762372

DIPOLE MOMENT
-------------
                                X             Y             Z
Electronic contribution:      0.00000      -0.00000      -0.00000
Nuclear contribution   :      0.00000       0.00000       0.00000
                        -----------------------------------------
Total Dipole Moment    :      0.00000      -0.00000      -0.00000
                        -----------------------------------------
Magnitude (a.u.)       :      0.00000
Magnitude (Debye)      :      0.00000

Rotational constants in cm-1:     0.000000     0.000000     0.000000
Rotational constants in MHz :     0.000000     0.000000     0.000000

                             ****ORCA TERMINATED NORMALLY****
TOTAL RUN TIME: 0 days 0 hours 5 minutes 55 seconds 370 msec
