                         Program Version 5.0.1 -  RELEASE  -
|  1> !uks pbe nori verytightscf soscf notrah
|  2>
|  3> %pal
|  4>   nprocs 32
|  5> end
|  6> %coords
|  7>   charge 0
|  8>   mult 2
|  9>   units bohrs
| 10>   coords
| 11>     Ag 0.0 0.0 0.0
| 12>   end
| 13> end
| 14> %basis
| 15>   gtoname "Ag_ugbs.basis"
| 16>   delECP Ag
| 17> end
| 18> %rel
| 19>   method zora
| 20>   modelpot 1, 0, 0, 0
| 21>   c 137.035999084
| 22> endd                         ****END OF INPUT****

CARTESIAN COORDINATES (ANGSTROEM)
---------------------------------
  Ag     0.000000    0.000000    0.000000

 Total Charge           Charge          ....    0
 Multiplicity           Mult            ....    2
 Number of Electrons    NEL             ....   47
 Basis Dimension        Dim             ....  179

ORBITAL ENERGIES
----------------
                 SPIN UP ORBITALS
  NO   OCC          E(Eh)            E(eV)
   0   1.0000    -963.933558    -26229.9656
   1   1.0000    -138.580043     -3770.9547
   2   1.0000    -124.143577     -3378.1185
   3   1.0000    -124.143577     -3378.1185
   4   1.0000    -124.143577     -3378.1185
   5   1.0000     -25.297827      -688.3889
   6   1.0000     -20.598672      -560.5184
   7   1.0000     -20.598672      -560.5184
   8   1.0000     -20.598672      -560.5184
   9   1.0000     -13.208468      -359.4207
  10   1.0000     -13.208468      -359.4207
  11   1.0000     -13.208468      -359.4207
  12   1.0000     -13.208468      -359.4207
  13   1.0000     -13.208468      -359.4207
  14   1.0000      -3.515403       -95.6590
  15   1.0000      -2.162088       -58.8334
  16   1.0000      -2.162088       -58.8334
  17   1.0000      -2.162088       -58.8334
  18   1.0000      -0.274405        -7.4669
  19   1.0000      -0.274405        -7.4669
  20   1.0000      -0.274405        -7.4669
  21   1.0000      -0.274405        -7.4669
  22   1.0000      -0.274405        -7.4669
  23   1.0000      -0.175211        -4.7677
  24   0.0000       0.007772         0.2115
  25   0.0000       0.028889         0.7861
  26   0.0000       0.028889         0.7861
  27   0.0000       0.028889         0.7861
  28   0.0000       0.123357         3.3567

                 SPIN DOWN ORBITALS
  NO   OCC          E(Eh)            E(eV)
   0   1.0000    -963.932889    -26229.9474
   1   1.0000    -138.580228     -3770.9597
   2   1.0000    -124.143604     -3378.1192
   3   1.0000    -124.143604     -3378.1192
   4   1.0000    -124.143604     -3378.1192
   5   1.0000     -25.297430      -688.3781
   6   1.0000     -20.598294      -560.5081
   7   1.0000     -20.598294      -560.5081
   8   1.0000     -20.598294      -560.5081
   9   1.0000     -13.208313      -359.4165
  10   1.0000     -13.208313      -359.4165
  11   1.0000     -13.208313      -359.4165
  12   1.0000     -13.208313      -359.4165
  13   1.0000     -13.208313      -359.4165
  14   1.0000      -3.515656       -95.6659
  15   1.0000      -2.161693       -58.8227
  16   1.0000      -2.161693       -58.8227
  17   1.0000      -2.161693       -58.8227
  18   1.0000      -0.266767        -7.2591
  19   1.0000      -0.266767        -7.2591
  20   1.0000      -0.266767        -7.2591
  21   1.0000      -0.266767        -7.2591
  22   1.0000      -0.266767        -7.2591
  23   0.0000      -0.146649        -3.9905
  24   0.0000       0.028395         0.7727
  25   0.0000       0.057740         1.5712
  26   0.0000       0.057740         1.5712
  27   0.0000       0.057740         1.5712

MULLIKEN ATOMIC CHARGES AND SPIN POPULATIONS
--------------------------------------------
   0 Ag:    0.000000    1.000000
Sum of atomic charges         :    0.0000000

LOEWDIN ATOMIC CHARGES AND SPIN POPULATIONS
-------------------------------------------
   0 Ag:    0.000000    1.000000

FINAL SINGLE POINT ENERGY     -5405.361535008768

DIPOLE MOMENT
-------------
                                X             Y             Z
Electronic contribution:      0.00000      -0.00000      -0.00000
Nuclear contribution   :      0.00000       0.00000       0.00000
                        -----------------------------------------
Total Dipole Moment    :      0.00000      -0.00000      -0.00000
                        -----------------------------------------
Magnitude (a.u.)       :      0.00000
Magnitude (Debye)      :      0.00000

Rotational constants in cm-1:     0.000000     0.000000     0.000000
Rotational constants in MHz :     0.000000     0.000000     0.000000

                             ****ORCA TERMINATED NORMALLY****
TOTAL RUN TIME: 0 days 0 hours 5 minutes 31 seconds 355 msec
