                         Program Version 5.0.1 -  RELEASE  -
|  1> !uks pbe nori verytightscf soscf notrah
|  2>
|  3> %pal
|  4>   nprocs 32
|  5> end
|  6> %coords
|  7>   charge 0
|  8>   mult 1
|  9>   units bohrs
| 10>   coords
| 11>     Cd 0.0 0.0 0.0
| 12>   end
| 13> end
| 14> %basis
| 15>   gtoname "Cd_ano-r3.basis"
| 16>   delECP Cd
| 17> end
| 18> %rel
| 19>   method zora
| 20>   modelpot 1, 0, 0, 0
| 21>   c 137.035999084
| 22> endd                         ****END OF INPUT****

CARTESIAN COORDINATES (ANGSTROEM)
---------------------------------
  Cd     0.000000    0.000000    0.000000

 Total Charge           Charge          ....    0
 Multiplicity           Mult            ....    1
 Number of Electrons    NEL             ....   48
 Basis Dimension        Dim             ....  101

ORBITAL ENERGIES
----------------
                 SPIN UP ORBITALS
  NO   OCC          E(Eh)            E(eV)
   0   1.0000   -1006.520588    -27388.8176
   1   1.0000    -145.988661     -3972.5534
   2   1.0000    -131.410929     -3575.8732
   3   1.0000    -131.410929     -3575.8732
   4   1.0000    -131.410929     -3575.8732
   5   1.0000     -27.079568      -736.8725
   6   1.0000     -22.254299      -605.5703
   7   1.0000     -22.254299      -605.5703
   8   1.0000     -22.254299      -605.5703
   9   1.0000     -14.543666      -395.7533
  10   1.0000     -14.543666      -395.7533
  11   1.0000     -14.543666      -395.7533
  12   1.0000     -14.543666      -395.7533
  13   1.0000     -14.543666      -395.7533
  14   1.0000      -3.897014      -106.0432
  15   1.0000      -2.473664       -67.3118
  16   1.0000      -2.473664       -67.3118
  17   1.0000      -2.473664       -67.3118
  18   1.0000      -0.429512       -11.6876
  19   1.0000      -0.429512       -11.6876
  20   1.0000      -0.429512       -11.6876
  21   1.0000      -0.429512       -11.6876
  22   1.0000      -0.429512       -11.6876
  23   1.0000      -0.207736        -5.6528
  24   0.0000       0.058198         1.5836
  25   0.0000       0.058198         1.5836
  26   0.0000       0.058198         1.5836
  27   0.0000       0.089739         2.4419
  28   0.0000       0.360306         9.8044

                 SPIN DOWN ORBITALS
  NO   OCC          E(Eh)            E(eV)
   0   1.0000   -1006.520588    -27388.8176
   1   1.0000    -145.988661     -3972.5534
   2   1.0000    -131.410929     -3575.8732
   3   1.0000    -131.410929     -3575.8732
   4   1.0000    -131.410929     -3575.8732
   5   1.0000     -27.079568      -736.8725
   6   1.0000     -22.254299      -605.5703
   7   1.0000     -22.254299      -605.5703
   8   1.0000     -22.254299      -605.5703
   9   1.0000     -14.543666      -395.7533
  10   1.0000     -14.543666      -395.7533
  11   1.0000     -14.543666      -395.7533
  12   1.0000     -14.543666      -395.7533
  13   1.0000     -14.543666      -395.7533
  14   1.0000      -3.897014      -106.0432
  15   1.0000      -2.473664       -67.3118
  16   1.0000      -2.473664       -67.3118
  17   1.0000      -2.473664       -67.3118
  18   1.0000      -0.429512       -11.6876
  19   1.0000      -0.429512       -11.6876
  20   1.0000      -0.429512       -11.6876
  21   1.0000      -0.429512       -11.6876
  22   1.0000      -0.429512       -11.6876
  23   1.0000      -0.207736        -5.6528
  24   0.0000       0.058198         1.5836
  25   0.0000       0.058198         1.5836
  26   0.0000       0.058198         1.5836
  27   0.0000       0.089739         2.4419
  28   0.0000       0.360306         9.8044

MULLIKEN ATOMIC CHARGES AND SPIN POPULATIONS
--------------------------------------------
   0 Cd:   -0.000000    0.000000
Sum of atomic charges         :   -0.0000000

LOEWDIN ATOMIC CHARGES AND SPIN POPULATIONS
-------------------------------------------
   0 Cd:    0.000000    0.000000

FINAL SINGLE POINT ENERGY     -5681.032959275920

DIPOLE MOMENT
-------------
                                X             Y             Z
Electronic contribution:      0.00000       0.00000      -0.00000
Nuclear contribution   :      0.00000       0.00000       0.00000
                        -----------------------------------------
Total Dipole Moment    :      0.00000       0.00000      -0.00000
                        -----------------------------------------
Magnitude (a.u.)       :      0.00000
Magnitude (Debye)      :      0.00000

Rotational constants in cm-1:     0.000000     0.000000     0.000000
Rotational constants in MHz :     0.000000     0.000000     0.000000

                             ****ORCA TERMINATED NORMALLY****
TOTAL RUN TIME: 0 days 0 hours 17 minutes 52 seconds 749 msec
