                         Program Version 5.0.1 -  RELEASE  -
|  1> !uks pbe nori verytightscf soscf notrah
|  2>
|  3> %pal
|  4>   nprocs 32
|  5> end
|  6> %coords
|  7>   charge 0
|  8>   mult 1
|  9>   units bohrs
| 10>   coords
| 11>     Cd 0.0 0.0 0.0
| 12>   end
| 13> end
| 14> %basis
| 15>   gtoname "Cd_sarc-zora-tzvpp.basis"
| 16>   delECP Cd
| 17> end
| 18> %rel
| 19>   method zora
| 20>   modelpot 1, 0, 0, 0
| 21>   c 137.035999084
| 22> endd                         ****END OF INPUT****

CARTESIAN COORDINATES (ANGSTROEM)
---------------------------------
  Cd     0.000000    0.000000    0.000000

 Total Charge           Charge          ....    0
 Multiplicity           Mult            ....    1
 Number of Electrons    NEL             ....   48
 Basis Dimension        Dim             ....   98

ORBITAL ENERGIES
----------------
                 SPIN UP ORBITALS
  NO   OCC          E(Eh)            E(eV)
   0   1.0000   -1011.030569    -27511.5405
   1   1.0000    -146.495928     -3986.3569
   2   1.0000    -131.299208     -3572.8331
   3   1.0000    -131.299208     -3572.8331
   4   1.0000    -131.299208     -3572.8331
   5   1.0000     -27.194502      -740.0000
   6   1.0000     -22.249962      -605.4523
   7   1.0000     -22.249962      -605.4523
   8   1.0000     -22.249962      -605.4523
   9   1.0000     -14.536226      -395.5508
  10   1.0000     -14.536226      -395.5508
  11   1.0000     -14.536226      -395.5508
  12   1.0000     -14.536226      -395.5508
  13   1.0000     -14.536226      -395.5508
  14   1.0000      -3.924538      -106.7921
  15   1.0000      -2.476847       -67.3984
  16   1.0000      -2.476847       -67.3984
  17   1.0000      -2.476847       -67.3984
  18   1.0000      -0.427350       -11.6288
  19   1.0000      -0.427350       -11.6288
  20   1.0000      -0.427350       -11.6288
  21   1.0000      -0.427350       -11.6288
  22   1.0000      -0.427350       -11.6288
  23   1.0000      -0.208581        -5.6758
  24   0.0000      -0.037939        -1.0324
  25   0.0000      -0.037939        -1.0324
  26   0.0000      -0.037939        -1.0324
  27   0.0000       0.108733         2.9588
  28   0.0000       0.121051         3.2940

                 SPIN DOWN ORBITALS
  NO   OCC          E(Eh)            E(eV)
   0   1.0000   -1011.030569    -27511.5405
   1   1.0000    -146.495928     -3986.3569
   2   1.0000    -131.299208     -3572.8331
   3   1.0000    -131.299208     -3572.8331
   4   1.0000    -131.299208     -3572.8331
   5   1.0000     -27.194502      -740.0000
   6   1.0000     -22.249962      -605.4523
   7   1.0000     -22.249962      -605.4523
   8   1.0000     -22.249962      -605.4523
   9   1.0000     -14.536226      -395.5508
  10   1.0000     -14.536226      -395.5508
  11   1.0000     -14.536226      -395.5508
  12   1.0000     -14.536226      -395.5508
  13   1.0000     -14.536226      -395.5508
  14   1.0000      -3.924538      -106.7921
  15   1.0000      -2.476847       -67.3984
  16   1.0000      -2.476847       -67.3984
  17   1.0000      -2.476847       -67.3984
  18   1.0000      -0.427350       -11.6288
  19   1.0000      -0.427350       -11.6288
  20   1.0000      -0.427350       -11.6288
  21   1.0000      -0.427350       -11.6288
  22   1.0000      -0.427350       -11.6288
  23   1.0000      -0.208581        -5.6758
  24   0.0000      -0.037939        -1.0324
  25   0.0000      -0.037939        -1.0324
  26   0.0000      -0.037939        -1.0324
  27   0.0000       0.108733         2.9588
  28   0.0000       0.121051         3.2940

MULLIKEN ATOMIC CHARGES AND SPIN POPULATIONS
--------------------------------------------
   0 Cd:    0.000000    0.000000
Sum of atomic charges         :    0.0000000

LOEWDIN ATOMIC CHARGES AND SPIN POPULATIONS
-------------------------------------------
   0 Cd:    0.000000    0.000000

FINAL SINGLE POINT ENERGY     -5691.967678232611

DIPOLE MOMENT
-------------
                                X             Y             Z
Electronic contribution:     -0.00000      -0.00000      -0.00000
Nuclear contribution   :      0.00000       0.00000       0.00000
                        -----------------------------------------
Total Dipole Moment    :     -0.00000      -0.00000      -0.00000
                        -----------------------------------------
Magnitude (a.u.)       :      0.00000
Magnitude (Debye)      :      0.00000

Rotational constants in cm-1:     0.000000     0.000000     0.000000
Rotational constants in MHz :     0.000000     0.000000     0.000000

                             ****ORCA TERMINATED NORMALLY****
TOTAL RUN TIME: 0 days 0 hours 3 minutes 5 seconds 401 msec
