                         Program Version 5.0.1 -  RELEASE  -
|  1> !uks pbe nori verytightscf soscf notrah
|  2>
|  3> %pal
|  4>   nprocs 32
|  5> end
|  6> %coords
|  7>   charge 0
|  8>   mult 1
|  9>   units bohrs
| 10>   coords
| 11>     Cd 0.0 0.0 0.0
| 12>   end
| 13> end
| 14> %basis
| 15>   gtoname "Cd_sapporo-qzp-2012-diffuse.basis"
| 16>   delECP Cd
| 17> end
| 18> %rel
| 19>   method zora
| 20>   modelpot 1, 0, 0, 0
| 21>   c 137.035999084
| 22> endd                         ****END OF INPUT****

CARTESIAN COORDINATES (ANGSTROEM)
---------------------------------
  Cd     0.000000    0.000000    0.000000

 Total Charge           Charge          ....    0
 Multiplicity           Mult            ....    1
 Number of Electrons    NEL             ....   48
 Basis Dimension        Dim             ....  150

ORBITAL ENERGIES
----------------
                 SPIN UP ORBITALS
  NO   OCC          E(Eh)            E(eV)
   0   1.0000   -1003.648928    -27310.6758
   1   1.0000    -145.161418     -3950.0430
   2   1.0000    -131.750015     -3585.1002
   3   1.0000    -131.750015     -3585.1002
   4   1.0000    -131.750015     -3585.1002
   5   1.0000     -26.834024      -730.1909
   6   1.0000     -22.256872      -605.6403
   7   1.0000     -22.256872      -605.6403
   8   1.0000     -22.256872      -605.6403
   9   1.0000     -14.553182      -396.0122
  10   1.0000     -14.553182      -396.0122
  11   1.0000     -14.553182      -396.0122
  12   1.0000     -14.553182      -396.0122
  13   1.0000     -14.553182      -396.0122
  14   1.0000      -3.860942      -105.0616
  15   1.0000      -2.478049       -67.4311
  16   1.0000      -2.478049       -67.4311
  17   1.0000      -2.478049       -67.4311
  18   1.0000      -0.435318       -11.8456
  19   1.0000      -0.435318       -11.8456
  20   1.0000      -0.435318       -11.8456
  21   1.0000      -0.435318       -11.8456
  22   1.0000      -0.435318       -11.8456
  23   1.0000      -0.206228        -5.6117
  24   0.0000      -0.042250        -1.1497
  25   0.0000      -0.042250        -1.1497
  26   0.0000      -0.042250        -1.1497
  27   0.0000       0.005414         0.1473
  28   0.0000       0.064064         1.7433

                 SPIN DOWN ORBITALS
  NO   OCC          E(Eh)            E(eV)
   0   1.0000   -1003.648928    -27310.6758
   1   1.0000    -145.161418     -3950.0430
   2   1.0000    -131.750015     -3585.1002
   3   1.0000    -131.750015     -3585.1002
   4   1.0000    -131.750015     -3585.1002
   5   1.0000     -26.834024      -730.1909
   6   1.0000     -22.256872      -605.6403
   7   1.0000     -22.256872      -605.6403
   8   1.0000     -22.256872      -605.6403
   9   1.0000     -14.553182      -396.0122
  10   1.0000     -14.553182      -396.0122
  11   1.0000     -14.553182      -396.0122
  12   1.0000     -14.553182      -396.0122
  13   1.0000     -14.553182      -396.0122
  14   1.0000      -3.860942      -105.0616
  15   1.0000      -2.478049       -67.4311
  16   1.0000      -2.478049       -67.4311
  17   1.0000      -2.478049       -67.4311
  18   1.0000      -0.435318       -11.8456
  19   1.0000      -0.435318       -11.8456
  20   1.0000      -0.435318       -11.8456
  21   1.0000      -0.435318       -11.8456
  22   1.0000      -0.435318       -11.8456
  23   1.0000      -0.206228        -5.6117
  24   0.0000      -0.042250        -1.1497
  25   0.0000      -0.042250        -1.1497
  26   0.0000      -0.042250        -1.1497
  27   0.0000       0.005414         0.1473
  28   0.0000       0.064064         1.7433

MULLIKEN ATOMIC CHARGES AND SPIN POPULATIONS
--------------------------------------------
   0 Cd:    0.000000    0.000000
Sum of atomic charges         :    0.0000000

LOEWDIN ATOMIC CHARGES AND SPIN POPULATIONS
-------------------------------------------
   0 Cd:   -0.000000    0.000000

FINAL SINGLE POINT ENERGY     -5662.431260912234

DIPOLE MOMENT
-------------
                                X             Y             Z
Electronic contribution:      0.00000       0.00000      -0.00000
Nuclear contribution   :      0.00000       0.00000       0.00000
                        -----------------------------------------
Total Dipole Moment    :      0.00000       0.00000      -0.00000
                        -----------------------------------------
Magnitude (a.u.)       :      0.00000
Magnitude (Debye)      :      0.00000

Rotational constants in cm-1:     0.000000     0.000000     0.000000
Rotational constants in MHz :     0.000000     0.000000     0.000000

                             ****ORCA TERMINATED NORMALLY****
TOTAL RUN TIME: 0 days 0 hours 2 minutes 26 seconds 679 msec
