                         Program Version 5.0.1 -  RELEASE  -
|  1> !uks pbe nori verytightscf soscf notrah
|  2>
|  3> %pal
|  4>   nprocs 32
|  5> end
|  6> %coords
|  7>   charge 0
|  8>   mult 1
|  9>   units bohrs
| 10>   coords
| 11>     Cd 0.0 0.0 0.0
| 12>   end
| 13> end
| 14> %basis
| 15>   gtoname "Cd_ugbs.basis"
| 16>   delECP Cd
| 17> end
| 18> %rel
| 19>   method zora
| 20>   modelpot 1, 0, 0, 0
| 21>   c 137.035999084
| 22> endd                         ****END OF INPUT****

CARTESIAN COORDINATES (ANGSTROEM)
---------------------------------
  Cd     0.000000    0.000000    0.000000

 Total Charge           Charge          ....    0
 Multiplicity           Mult            ....    1
 Number of Electrons    NEL             ....   48
 Basis Dimension        Dim             ....  171

ORBITAL ENERGIES
----------------
                 SPIN UP ORBITALS
  NO   OCC          E(Eh)            E(eV)
   0   1.0000   -1010.972664    -27509.9648
   1   1.0000    -146.395373     -3983.6206
   2   1.0000    -131.185907     -3569.7500
   3   1.0000    -131.185907     -3569.7500
   4   1.0000    -131.185907     -3569.7500
   5   1.0000     -27.163797      -739.1645
   6   1.0000     -22.221005      -604.6643
   7   1.0000     -22.221005      -604.6643
   8   1.0000     -22.221005      -604.6643
   9   1.0000     -14.507276      -394.7631
  10   1.0000     -14.507276      -394.7631
  11   1.0000     -14.507276      -394.7631
  12   1.0000     -14.507276      -394.7631
  13   1.0000     -14.507276      -394.7631
  14   1.0000      -3.918112      -106.6172
  15   1.0000      -2.472466       -67.2792
  16   1.0000      -2.472466       -67.2792
  17   1.0000      -2.472466       -67.2792
  18   1.0000      -0.428534       -11.6610
  19   1.0000      -0.428534       -11.6610
  20   1.0000      -0.428534       -11.6610
  21   1.0000      -0.428534       -11.6610
  22   1.0000      -0.428534       -11.6610
  23   1.0000      -0.208934        -5.6854
  24   0.0000       0.037857         1.0301
  25   0.0000       0.162538         4.4229
  26   0.0000       0.162538         4.4229
  27   0.0000       0.162538         4.4229
  28   0.0000       0.258140         7.0244

                 SPIN DOWN ORBITALS
  NO   OCC          E(Eh)            E(eV)
   0   1.0000   -1010.972664    -27509.9648
   1   1.0000    -146.395373     -3983.6206
   2   1.0000    -131.185907     -3569.7500
   3   1.0000    -131.185907     -3569.7500
   4   1.0000    -131.185907     -3569.7500
   5   1.0000     -27.163797      -739.1645
   6   1.0000     -22.221005      -604.6643
   7   1.0000     -22.221005      -604.6643
   8   1.0000     -22.221005      -604.6643
   9   1.0000     -14.507276      -394.7631
  10   1.0000     -14.507276      -394.7631
  11   1.0000     -14.507276      -394.7631
  12   1.0000     -14.507276      -394.7631
  13   1.0000     -14.507276      -394.7631
  14   1.0000      -3.918112      -106.6172
  15   1.0000      -2.472466       -67.2792
  16   1.0000      -2.472466       -67.2792
  17   1.0000      -2.472466       -67.2792
  18   1.0000      -0.428534       -11.6610
  19   1.0000      -0.428534       -11.6610
  20   1.0000      -0.428534       -11.6610
  21   1.0000      -0.428534       -11.6610
  22   1.0000      -0.428534       -11.6610
  23   1.0000      -0.208934        -5.6854
  24   0.0000       0.037857         1.0301
  25   0.0000       0.162538         4.4229
  26   0.0000       0.162538         4.4229
  27   0.0000       0.162538         4.4229
  28   0.0000       0.258140         7.0244

MULLIKEN ATOMIC CHARGES AND SPIN POPULATIONS
--------------------------------------------
   0 Cd:   -0.000000   -0.000000
Sum of atomic charges         :   -0.0000000

LOEWDIN ATOMIC CHARGES AND SPIN POPULATIONS
-------------------------------------------
   0 Cd:    0.000000   -0.000000

FINAL SINGLE POINT ENERGY     -5692.392232217100

DIPOLE MOMENT
-------------
                                X             Y             Z
Electronic contribution:      0.00000       0.00000      -0.00000
Nuclear contribution   :      0.00000       0.00000       0.00000
                        -----------------------------------------
Total Dipole Moment    :      0.00000       0.00000      -0.00000
                        -----------------------------------------
Magnitude (a.u.)       :      0.00000
Magnitude (Debye)      :      0.00000

Rotational constants in cm-1:     0.000000     0.000000     0.000000
Rotational constants in MHz :     0.000000     0.000000     0.000000

                             ****ORCA TERMINATED NORMALLY****
TOTAL RUN TIME: 0 days 0 hours 3 minutes 12 seconds 672 msec
