                         Program Version 5.0.1 -  RELEASE  -
|  1> !uks pbe nori verytightscf soscf notrah
|  2>
|  3> %pal
|  4>   nprocs 32
|  5> end
|  6> %coords
|  7>   charge 0
|  8>   mult 2
|  9>   units bohrs
| 10>   coords
| 11>     I 0.0 0.0 0.0
| 12>   end
| 13> end
| 14> %basis
| 15>   gtoname "I_ano-r3.basis"
| 16>   delECP I
| 17> end
| 18> %rel
| 19>   method zora
| 20>   modelpot 1, 0, 0, 0
| 21>   c 137.035999084
| 22> endd                         ****END OF INPUT****

CARTESIAN COORDINATES (ANGSTROEM)
---------------------------------
  I      0.000000    0.000000    0.000000

 Total Charge           Charge          ....    0
 Multiplicity           Mult            ....    2
 Number of Electrons    NEL             ....   53
 Basis Dimension        Dim             ....  120

ORBITAL ENERGIES
----------------
                 SPIN UP ORBITALS
  NO   OCC          E(Eh)            E(eV)
   0   1.0000   -1259.823476    -34281.5396
   1   1.0000    -189.113074     -5146.0284
   2   1.0000    -170.471034     -4638.7527
   3   1.0000    -170.467432     -4638.6546
   4   1.0000    -170.467432     -4638.6546
   5   1.0000     -37.948295     -1032.6256
   6   1.0000     -31.844774      -866.5404
   7   1.0000     -31.837162      -866.3332
   8   1.0000     -31.837162      -866.3332
   9   1.0000     -22.413152      -609.8929
  10   1.0000     -22.411436      -609.8462
  11   1.0000     -22.411436      -609.8462
  12   1.0000     -22.406262      -609.7054
  13   1.0000     -22.406262      -609.7054
  14   1.0000      -6.641067      -180.7126
  15   1.0000      -4.725321      -128.5825
  16   1.0000      -4.708216      -128.1171
  17   1.0000      -4.708216      -128.1171
  18   1.0000      -1.859255       -50.5929
  19   1.0000      -1.854152       -50.4540
  20   1.0000      -1.854152       -50.4540
  21   1.0000      -1.839207       -50.0474
  22   1.0000      -1.839207       -50.0474
  23   1.0000      -0.649116       -17.6633
  24   1.0000      -0.298170        -8.1136
  25   1.0000      -0.258618        -7.0373
  26   1.0000      -0.258618        -7.0373
  27   0.0000       0.008849         0.2408
  28   0.0000       0.154585         4.2065
  29   0.0000       0.172679         4.6988
  30   0.0000       0.172679         4.6988
  31   0.0000       0.196024         5.3341

                 SPIN DOWN ORBITALS
  NO   OCC          E(Eh)            E(eV)
   0   1.0000   -1259.822413    -34281.5107
   1   1.0000    -189.112573     -5146.0147
   2   1.0000    -170.469169     -4638.7019
   3   1.0000    -170.466998     -4638.6429
   4   1.0000    -170.466998     -4638.6429
   5   1.0000     -37.947329     -1032.5993
   6   1.0000     -31.842514      -866.4789
   7   1.0000     -31.836646      -866.3192
   8   1.0000     -31.836646      -866.3192
   9   1.0000     -22.411287      -609.8421
  10   1.0000     -22.409977      -609.8065
  11   1.0000     -22.409977      -609.8065
  12   1.0000     -22.406023      -609.6989
  13   1.0000     -22.406023      -609.6989
  14   1.0000      -6.638750      -180.6496
  15   1.0000      -4.720056      -128.4392
  16   1.0000      -4.707205      -128.0896
  17   1.0000      -4.707205      -128.0896
  18   1.0000      -1.851438       -50.3802
  19   1.0000      -1.848529       -50.3010
  20   1.0000      -1.848529       -50.3010
  21   1.0000      -1.838563       -50.0298
  22   1.0000      -1.838563       -50.0298
  23   1.0000      -0.623051       -16.9541
  24   1.0000      -0.247498        -6.7348
  25   1.0000      -0.247498        -6.7348
  26   0.0000      -0.241646        -6.5755
  27   0.0000       0.017495         0.4761
  28   0.0000       0.177436         4.8283
  29   0.0000       0.177436         4.8283
  30   0.0000       0.180532         4.9125

MULLIKEN ATOMIC CHARGES AND SPIN POPULATIONS
--------------------------------------------
   0 I :    0.000000    1.000000
Sum of atomic charges         :    0.0000000

LOEWDIN ATOMIC CHARGES AND SPIN POPULATIONS
-------------------------------------------
   0 I :    0.000000    1.000000

FINAL SINGLE POINT ENERGY     -7246.698791026245

DIPOLE MOMENT
-------------
                                X             Y             Z
Electronic contribution:     -0.00000       0.00000      -0.00000
Nuclear contribution   :      0.00000       0.00000       0.00000
                        -----------------------------------------
Total Dipole Moment    :     -0.00000       0.00000      -0.00000
                        -----------------------------------------
Magnitude (a.u.)       :      0.00000
Magnitude (Debye)      :      0.00000

Rotational constants in cm-1:     0.000000     0.000000     0.000000
Rotational constants in MHz :     0.000000     0.000000     0.000000

                             ****ORCA TERMINATED NORMALLY****
TOTAL RUN TIME: 0 days 0 hours 59 minutes 37 seconds 721 msec
