                         Program Version 5.0.1 -  RELEASE  -
|  1> !uks pbe nori verytightscf soscf notrah
|  2>
|  3> %pal
|  4>   nprocs 32
|  5> end
|  6> %coords
|  7>   charge 0
|  8>   mult 2
|  9>   units bohrs
| 10>   coords
| 11>     I 0.0 0.0 0.0
| 12>   end
| 13> end
| 14> %basis
| 15>   gtoname "I_sarc-zora-tzvpp.basis"
| 16>   delECP I
| 17> end
| 18> %rel
| 19>   method zora
| 20>   modelpot 1, 0, 0, 0
| 21>   c 137.035999084
| 22> endd                         ****END OF INPUT****

CARTESIAN COORDINATES (ANGSTROEM)
---------------------------------
  I      0.000000    0.000000    0.000000

 Total Charge           Charge          ....    0
 Multiplicity           Mult            ....    2
 Number of Electrons    NEL             ....   53
 Basis Dimension        Dim             ....   87

ORBITAL ENERGIES
----------------
                 SPIN UP ORBITALS
  NO   OCC          E(Eh)            E(eV)
   0   1.0000   -1267.575875    -34492.4931
   1   1.0000    -190.046193     -5171.4198
   2   1.0000    -170.349177     -4635.4368
   3   1.0000    -170.345434     -4635.3349
   4   1.0000    -170.345434     -4635.3349
   5   1.0000     -38.162401     -1038.4517
   6   1.0000     -31.846316      -866.5823
   7   1.0000     -31.838066      -866.3578
   8   1.0000     -31.838066      -866.3578
   9   1.0000     -22.408090      -609.7551
  10   1.0000     -22.406239      -609.7048
  11   1.0000     -22.406239      -609.7048
  12   1.0000     -22.400656      -609.5528
  13   1.0000     -22.400656      -609.5528
  14   1.0000      -6.696994      -182.2345
  15   1.0000      -4.733863      -128.8150
  16   1.0000      -4.715048      -128.3030
  17   1.0000      -4.715048      -128.3030
  18   1.0000      -1.856885       -50.5284
  19   1.0000      -1.851423       -50.3798
  20   1.0000      -1.851423       -50.3798
  21   1.0000      -1.835263       -49.9401
  22   1.0000      -1.835263       -49.9401
  23   1.0000      -0.655559       -17.8387
  24   1.0000      -0.298789        -8.1305
  25   1.0000      -0.258777        -7.0417
  26   1.0000      -0.258777        -7.0417
  27   0.0000       0.025425         0.6919
  28   0.0000       0.031157         0.8478
  29   0.0000       0.031157         0.8478
  30   0.0000       0.039264         1.0684
  31   0.0000       0.228035         6.2051

                 SPIN DOWN ORBITALS
  NO   OCC          E(Eh)            E(eV)
   0   1.0000   -1267.574783    -34492.4634
   1   1.0000    -190.045688     -5171.4061
   2   1.0000    -170.347262     -4635.3847
   3   1.0000    -170.344994     -4635.3229
   4   1.0000    -170.344994     -4635.3229
   5   1.0000     -38.161422     -1038.4251
   6   1.0000     -31.844009      -866.5195
   7   1.0000     -31.837540      -866.3435
   8   1.0000     -31.837540      -866.3435
   9   1.0000     -22.406231      -609.7045
  10   1.0000     -22.404787      -609.6652
  11   1.0000     -22.404787      -609.6652
  12   1.0000     -22.400423      -609.5465
  13   1.0000     -22.400423      -609.5465
  14   1.0000      -6.694681      -182.1715
  15   1.0000      -4.728710      -128.6747
  16   1.0000      -4.714013      -128.2748
  17   1.0000      -4.714013      -128.2748
  18   1.0000      -1.849249       -50.3206
  19   1.0000      -1.845859       -50.2284
  20   1.0000      -1.845859       -50.2284
  21   1.0000      -1.834518       -49.9198
  22   1.0000      -1.834518       -49.9198
  23   1.0000      -0.629576       -17.1316
  24   1.0000      -0.247554        -6.7363
  25   1.0000      -0.247554        -6.7363
  26   0.0000      -0.242777        -6.6063
  27   0.0000       0.032925         0.8959
  28   0.0000       0.032925         0.8959
  29   0.0000       0.036402         0.9906
  30   0.0000       0.049091         1.3358

MULLIKEN ATOMIC CHARGES AND SPIN POPULATIONS
--------------------------------------------
   0 I :   -0.000000    1.000000
Sum of atomic charges         :   -0.0000000

LOEWDIN ATOMIC CHARGES AND SPIN POPULATIONS
-------------------------------------------
   0 I :   -0.000000    1.000000

FINAL SINGLE POINT ENERGY     -7265.257316371399

DIPOLE MOMENT
-------------
                                X             Y             Z
Electronic contribution:      0.00000       0.00000      -0.00000
Nuclear contribution   :      0.00000       0.00000       0.00000
                        -----------------------------------------
Total Dipole Moment    :      0.00000       0.00000      -0.00000
                        -----------------------------------------
Magnitude (a.u.)       :      0.00000
Magnitude (Debye)      :      0.00000

Rotational constants in cm-1:     0.000000     0.000000     0.000000
Rotational constants in MHz :     0.000000     0.000000     0.000000

                             ****ORCA TERMINATED NORMALLY****
TOTAL RUN TIME: 0 days 0 hours 4 minutes 9 seconds 176 msec
