                         Program Version 5.0.1 -  RELEASE  -
|  1> !uks pbe nori verytightscf soscf notrah
|  2>
|  3> %pal
|  4>   nprocs 32
|  5> end
|  6> %coords
|  7>   charge 0
|  8>   mult 2
|  9>   units bohrs
| 10>   coords
| 11>     I 0.0 0.0 0.0
| 12>   end
| 13> end
| 14> %basis
| 15>   gtoname "I_sapporo-qzp-2012-diffuse.basis"
| 16>   delECP I
| 17> end
| 18> %rel
| 19>   method zora
| 20>   modelpot 1, 0, 0, 0
| 21>   c 137.035999084
| 22> endd                         ****END OF INPUT****

CARTESIAN COORDINATES (ANGSTROEM)
---------------------------------
  I      0.000000    0.000000    0.000000

 Total Charge           Charge          ....    0
 Multiplicity           Mult            ....    2
 Number of Electrons    NEL             ....   53
 Basis Dimension        Dim             ....  181

ORBITAL ENERGIES
----------------
                 SPIN UP ORBITALS
  NO   OCC          E(Eh)            E(eV)
   0   1.0000   -1252.782243    -34089.9379
   1   1.0000    -187.425771     -5100.1145
   2   1.0000    -170.850084     -4649.0671
   3   1.0000    -170.846496     -4648.9695
   4   1.0000    -170.846496     -4648.9695
   5   1.0000     -37.495686     -1020.3095
   6   1.0000     -31.826945      -866.0552
   7   1.0000     -31.819326      -865.8479
   8   1.0000     -31.819326      -865.8479
   9   1.0000     -22.431547      -610.3934
  10   1.0000     -22.429831      -610.3467
  11   1.0000     -22.429831      -610.3467
  12   1.0000     -22.424656      -610.2059
  13   1.0000     -22.424656      -610.2059
  14   1.0000      -6.567198      -178.7025
  15   1.0000      -4.730442      -128.7219
  16   1.0000      -4.713359      -128.2570
  17   1.0000      -4.713359      -128.2570
  18   1.0000      -1.873407       -50.9780
  19   1.0000      -1.868325       -50.8397
  20   1.0000      -1.868325       -50.8397
  21   1.0000      -1.853439       -50.4346
  22   1.0000      -1.853439       -50.4346
  23   1.0000      -0.641184       -17.4475
  24   1.0000      -0.299420        -8.1476
  25   1.0000      -0.259934        -7.0732
  26   1.0000      -0.259934        -7.0732
  27   0.0000      -0.018482        -0.5029
  28   0.0000       0.019278         0.5246
  29   0.0000       0.024473         0.6659
  30   0.0000       0.024473         0.6659
  31   0.0000       0.053332         1.4512

                 SPIN DOWN ORBITALS
  NO   OCC          E(Eh)            E(eV)
   0   1.0000   -1252.781240    -34089.9106
   1   1.0000    -187.425314     -5100.1021
   2   1.0000    -170.848318     -4649.0191
   3   1.0000    -170.846086     -4648.9584
   4   1.0000    -170.846086     -4648.9584
   5   1.0000     -37.494744     -1020.2838
   6   1.0000     -31.824637      -865.9924
   7   1.0000     -31.818803      -865.8336
   8   1.0000     -31.818803      -865.8336
   9   1.0000     -22.429664      -610.3422
  10   1.0000     -22.428359      -610.3067
  11   1.0000     -22.428359      -610.3067
  12   1.0000     -22.424419      -610.1995
  13   1.0000     -22.424419      -610.1995
  14   1.0000      -6.564810      -178.6376
  15   1.0000      -4.725209      -128.5795
  16   1.0000      -4.712339      -128.2293
  17   1.0000      -4.712339      -128.2293
  18   1.0000      -1.865684       -50.7678
  19   1.0000      -1.862766       -50.6884
  20   1.0000      -1.862766       -50.6884
  21   1.0000      -1.852781       -50.4167
  22   1.0000      -1.852781       -50.4167
  23   1.0000      -0.614714       -16.7272
  24   1.0000      -0.248858        -6.7718
  25   1.0000      -0.248858        -6.7718
  26   0.0000      -0.243005        -6.6125
  27   0.0000      -0.012518        -0.3406
  28   0.0000       0.025757         0.7009
  29   0.0000       0.025757         0.7009
  30   0.0000       0.028946         0.7877

MULLIKEN ATOMIC CHARGES AND SPIN POPULATIONS
--------------------------------------------
   0 I :   -0.000000    1.000000
Sum of atomic charges         :   -0.0000000

LOEWDIN ATOMIC CHARGES AND SPIN POPULATIONS
-------------------------------------------
   0 I :   -0.000000    1.000000

FINAL SINGLE POINT ENERGY     -7212.305557097045

DIPOLE MOMENT
-------------
                                X             Y             Z
Electronic contribution:      0.00000       0.00000       0.00000
Nuclear contribution   :      0.00000       0.00000       0.00000
                        -----------------------------------------
Total Dipole Moment    :      0.00000       0.00000       0.00000
                        -----------------------------------------
Magnitude (a.u.)       :      0.00000
Magnitude (Debye)      :      0.00000

Rotational constants in cm-1:     0.000000     0.000000     0.000000
Rotational constants in MHz :     0.000000     0.000000     0.000000

                             ****ORCA TERMINATED NORMALLY****
TOTAL RUN TIME: 0 days 0 hours 2 minutes 21 seconds 812 msec
