                         Program Version 5.0.1 -  RELEASE  -
|  1> !uks pbe nori verytightscf soscf notrah
|  2>
|  3> %pal
|  4>   nprocs 32
|  5> end
|  6> %coords
|  7>   charge 0
|  8>   mult 2
|  9>   units bohrs
| 10>   coords
| 11>     I 0.0 0.0 0.0
| 12>   end
| 13> end
| 14> %basis
| 15>   gtoname "I_ugbs.basis"
| 16>   delECP I
| 17> end
| 18> %rel
| 19>   method zora
| 20>   modelpot 1, 0, 0, 0
| 21>   c 137.035999084
| 22> endd                         ****END OF INPUT****

CARTESIAN COORDINATES (ANGSTROEM)
---------------------------------
  I      0.000000    0.000000    0.000000

 Total Charge           Charge          ....    0
 Multiplicity           Mult            ....    2
 Number of Electrons    NEL             ....   53
 Basis Dimension        Dim             ....  176

ORBITAL ENERGIES
----------------
                 SPIN UP ORBITALS
  NO   OCC          E(Eh)            E(eV)
   0   1.0000   -1267.508048    -34490.6475
   1   1.0000    -189.902288     -5167.5040
   2   1.0000    -170.185485     -4630.9825
   3   1.0000    -170.181603     -4630.8768
   4   1.0000    -170.181603     -4630.8768
   5   1.0000     -38.111505     -1037.0668
   6   1.0000     -31.797571      -865.2559
   7   1.0000     -31.788492      -865.0088
   8   1.0000     -31.788492      -865.0088
   9   1.0000     -22.358682      -608.4107
  10   1.0000     -22.356658      -608.3556
  11   1.0000     -22.356658      -608.3556
  12   1.0000     -22.350559      -608.1896
  13   1.0000     -22.350559      -608.1896
  14   1.0000      -6.682622      -181.8434
  15   1.0000      -4.725494      -128.5872
  16   1.0000      -4.703643      -127.9926
  17   1.0000      -4.703643      -127.9926
  18   1.0000      -1.858703       -50.5779
  19   1.0000      -1.852462       -50.4081
  20   1.0000      -1.852462       -50.4081
  21   1.0000      -1.834066       -49.9075
  22   1.0000      -1.834066       -49.9075
  23   1.0000      -0.654452       -17.8085
  24   1.0000      -0.298398        -8.1198
  25   1.0000      -0.257127        -6.9968
  26   1.0000      -0.257127        -6.9968
  27   0.0000       0.034181         0.9301
  28   0.0000       0.104385         2.8405
  29   0.0000       0.118606         3.2274
  30   0.0000       0.118606         3.2274
  31   0.0000       0.126085         3.4310

                 SPIN DOWN ORBITALS
  NO   OCC          E(Eh)            E(eV)
   0   1.0000   -1267.506961    -34490.6179
   1   1.0000    -189.901795     -5167.4905
   2   1.0000    -170.183559     -4630.9301
   3   1.0000    -170.181170     -4630.8651
   4   1.0000    -170.181170     -4630.8651
   5   1.0000     -38.110537     -1037.0404
   6   1.0000     -31.795280      -865.1935
   7   1.0000     -31.787975      -864.9948
   8   1.0000     -31.787975      -864.9948
   9   1.0000     -22.356800      -608.3595
  10   1.0000     -22.355189      -608.3156
  11   1.0000     -22.355189      -608.3156
  12   1.0000     -22.350329      -608.1834
  13   1.0000     -22.350329      -608.1834
  14   1.0000      -6.680259      -181.7791
  15   1.0000      -4.720343      -128.4471
  16   1.0000      -4.702569      -127.9634
  17   1.0000      -4.702569      -127.9634
  18   1.0000      -1.851277       -50.3758
  19   1.0000      -1.847031       -50.2603
  20   1.0000      -1.847031       -50.2603
  21   1.0000      -1.833129       -49.8820
  22   1.0000      -1.833129       -49.8820
  23   1.0000      -0.628216       -17.0946
  24   1.0000      -0.244918        -6.6645
  25   1.0000      -0.244918        -6.6645
  26   0.0000      -0.245519        -6.6809
  27   0.0000       0.044040         1.1984
  28   0.0000       0.122627         3.3368
  29   0.0000       0.122627         3.3368
  30   0.0000       0.123920         3.3720

MULLIKEN ATOMIC CHARGES AND SPIN POPULATIONS
--------------------------------------------
   0 I :    0.000000    1.000000
Sum of atomic charges         :    0.0000000

LOEWDIN ATOMIC CHARGES AND SPIN POPULATIONS
-------------------------------------------
   0 I :    0.000000    1.000000

FINAL SINGLE POINT ENERGY     -7265.959082937957

DIPOLE MOMENT
-------------
                                X             Y             Z
Electronic contribution:      0.00000       0.00000      -0.00000
Nuclear contribution   :      0.00000       0.00000       0.00000
                        -----------------------------------------
Total Dipole Moment    :      0.00000       0.00000      -0.00000
                        -----------------------------------------
Magnitude (a.u.)       :      0.00000
Magnitude (Debye)      :      0.00000

Rotational constants in cm-1:     0.000000     0.000000     0.000000
Rotational constants in MHz :     0.000000     0.000000     0.000000

                             ****ORCA TERMINATED NORMALLY****
TOTAL RUN TIME: 0 days 0 hours 2 minutes 50 seconds 317 msec
