                         Program Version 5.0.1 -  RELEASE  -
|  1> !uks pbe nori verytightscf soscf notrah
|  2>
|  3> %pal
|  4>   nprocs 32
|  5> end
|  6> %coords
|  7>   charge 0
|  8>   mult 2
|  9>   units bohrs
| 10>   coords
| 11>     In 0.0 0.0 0.0
| 12>   end
| 13> end
| 14> %basis
| 15>   gtoname "In_ano-r3.basis"
| 16>   delECP In
| 17> end
| 18> %rel
| 19>   method zora
| 20>   modelpot 1, 0, 0, 0
| 21>   c 137.035999084
| 22> endd                         ****END OF INPUT****

CARTESIAN COORDINATES (ANGSTROEM)
---------------------------------
  In     0.000000    0.000000    0.000000

 Total Charge           Charge          ....    0
 Multiplicity           Mult            ....    2
 Number of Electrons    NEL             ....   49
 Basis Dimension        Dim             ....  104

ORBITAL ENERGIES
----------------
                 SPIN UP ORBITALS
  NO   OCC          E(Eh)            E(eV)
   0   1.0000   -1054.571034    -28696.3367
   1   1.0000    -154.103383     -4193.3662
   2   1.0000    -138.777626     -3776.3312
   3   1.0000    -138.777626     -3776.3312
   4   1.0000    -138.776482     -3776.3001
   5   1.0000     -29.098513      -791.8108
   6   1.0000     -24.034227      -654.0046
   7   1.0000     -24.034227      -654.0046
   8   1.0000     -24.031243      -653.9234
   9   1.0000     -15.994390      -435.2295
  10   1.0000     -15.994390      -435.2295
  11   1.0000     -15.992365      -435.1744
  12   1.0000     -15.992365      -435.1744
  13   1.0000     -15.991686      -435.1559
  14   1.0000      -4.402461      -119.7970
  15   1.0000      -2.888401       -78.5974
  16   1.0000      -2.888401       -78.5974
  17   1.0000      -2.880771       -78.3898
  18   1.0000      -0.687905       -18.7189
  19   1.0000      -0.687905       -18.7189
  20   1.0000      -0.681482       -18.5441
  21   1.0000      -0.681482       -18.5441
  22   1.0000      -0.679006       -18.4767
  23   1.0000      -0.307958        -8.3800
  24   1.0000      -0.104077        -2.8321
  25   0.0000      -0.096525        -2.6266
  26   0.0000      -0.096525        -2.6266
  27   0.0000      -0.004579        -0.1246
  28   0.0000       0.124495         3.3877
  29   0.0000       0.128402         3.4940

                 SPIN DOWN ORBITALS
  NO   OCC          E(Eh)            E(eV)
   0   1.0000   -1054.570671    -28696.3268
   1   1.0000    -154.103340     -4193.3651
   2   1.0000    -138.777557     -3776.3293
   3   1.0000    -138.777557     -3776.3293
   4   1.0000    -138.775948     -3776.2855
   5   1.0000     -29.098226      -791.8030
   6   1.0000     -24.034135      -654.0021
   7   1.0000     -24.034135      -654.0021
   8   1.0000     -24.030446      -653.9017
   9   1.0000     -15.994442      -435.2309
  10   1.0000     -15.994442      -435.2309
  11   1.0000     -15.991926      -435.1624
  12   1.0000     -15.991926      -435.1624
  13   1.0000     -15.991078      -435.1393
  14   1.0000      -4.401921      -119.7824
  15   1.0000      -2.888357       -78.5962
  16   1.0000      -2.888357       -78.5962
  17   1.0000      -2.878975       -78.3409
  18   1.0000      -0.687590       -18.7103
  19   1.0000      -0.687590       -18.7103
  20   1.0000      -0.677837       -18.4449
  21   1.0000      -0.677837       -18.4449
  22   1.0000      -0.674823       -18.3629
  23   1.0000      -0.289890        -7.8883
  24   0.0000      -0.085364        -2.3229
  25   0.0000      -0.085364        -2.3229
  26   0.0000      -0.063422        -1.7258
  27   0.0000       0.015996         0.4353
  28   0.0000       0.140834         3.8323

MULLIKEN ATOMIC CHARGES AND SPIN POPULATIONS
--------------------------------------------
   0 In:    0.000000    1.000000
Sum of atomic charges         :    0.0000000

LOEWDIN ATOMIC CHARGES AND SPIN POPULATIONS
-------------------------------------------
   0 In:   -0.000000    1.000000

FINAL SINGLE POINT ENERGY     -5975.928105653002

DIPOLE MOMENT
-------------
                                X             Y             Z
Electronic contribution:      0.00000      -0.00000      -0.00000
Nuclear contribution   :      0.00000       0.00000       0.00000
                        -----------------------------------------
Total Dipole Moment    :      0.00000      -0.00000      -0.00000
                        -----------------------------------------
Magnitude (a.u.)       :      0.00000
Magnitude (Debye)      :      0.00000

Rotational constants in cm-1:     0.000000     0.000000     0.000000
Rotational constants in MHz :     0.000000     0.000000     0.000000

                             ****ORCA TERMINATED NORMALLY****
TOTAL RUN TIME: 0 days 1 hours 1 minutes 35 seconds 46 msec
