                         Program Version 5.0.1 -  RELEASE  -
|  1> !uks pbe nori verytightscf soscf notrah
|  2>
|  3> %pal
|  4>   nprocs 32
|  5> end
|  6> %coords
|  7>   charge 0
|  8>   mult 2
|  9>   units bohrs
| 10>   coords
| 11>     In 0.0 0.0 0.0
| 12>   end
| 13> end
| 14> %basis
| 15>   gtoname "In_sapporo-qzp-2012-diffuse.basis"
| 16>   delECP In
| 17> end
| 18> %rel
| 19>   method zora
| 20>   modelpot 1, 0, 0, 0
| 21>   c 137.035999084
| 22> endd                         ****END OF INPUT****

CARTESIAN COORDINATES (ANGSTROEM)
---------------------------------
  In     0.000000    0.000000    0.000000

 Total Charge           Charge          ....    0
 Multiplicity           Mult            ....    2
 Number of Electrons    NEL             ....   49
 Basis Dimension        Dim             ....  181

ORBITAL ENERGIES
----------------
                 SPIN UP ORBITALS
  NO   OCC          E(Eh)            E(eV)
   0   1.0000   -1050.958046    -28598.0223
   1   1.0000    -153.106596     -4166.2423
   2   1.0000    -139.109532     -3785.3628
   3   1.0000    -139.109532     -3785.3628
   4   1.0000    -139.108364     -3785.3310
   5   1.0000     -28.809921      -783.9578
   6   1.0000     -24.026286      -653.7885
   7   1.0000     -24.026286      -653.7885
   8   1.0000     -24.023348      -653.7085
   9   1.0000     -15.996147      -435.2773
  10   1.0000     -15.996147      -435.2773
  11   1.0000     -15.994144      -435.2228
  12   1.0000     -15.994144      -435.2228
  13   1.0000     -15.993473      -435.2045
  14   1.0000      -4.360113      -118.6447
  15   1.0000      -2.892771       -78.7163
  16   1.0000      -2.892771       -78.7163
  17   1.0000      -2.885135       -78.5085
  18   1.0000      -0.693987       -18.8844
  19   1.0000      -0.693987       -18.8844
  20   1.0000      -0.687522       -18.7084
  21   1.0000      -0.687522       -18.7084
  22   1.0000      -0.685031       -18.6406
  23   1.0000      -0.304960        -8.2984
  24   1.0000      -0.105025        -2.8579
  25   0.0000      -0.097564        -2.6549
  26   0.0000      -0.097563        -2.6548
  27   0.0000      -0.015699        -0.4272
  28   0.0000       0.005842         0.1590
  29   0.0000       0.010672         0.2904

                 SPIN DOWN ORBITALS
  NO   OCC          E(Eh)            E(eV)
   0   1.0000   -1050.957693    -28598.0127
   1   1.0000    -153.106573     -4166.2416
   2   1.0000    -139.109473     -3785.3612
   3   1.0000    -139.109473     -3785.3612
   4   1.0000    -139.107858     -3785.3173
   5   1.0000     -28.809641      -783.9502
   6   1.0000     -24.026197      -653.7861
   7   1.0000     -24.026197      -653.7861
   8   1.0000     -24.022538      -653.6865
   9   1.0000     -15.996204      -435.2788
  10   1.0000     -15.996204      -435.2788
  11   1.0000     -15.993709      -435.2109
  12   1.0000     -15.993709      -435.2109
  13   1.0000     -15.992865      -435.1880
  14   1.0000      -4.359527      -118.6288
  15   1.0000      -2.892731       -78.7152
  16   1.0000      -2.892731       -78.7152
  17   1.0000      -2.883304       -78.4587
  18   1.0000      -0.693683       -18.8761
  19   1.0000      -0.693683       -18.8761
  20   1.0000      -0.683920       -18.6104
  21   1.0000      -0.683920       -18.6104
  22   1.0000      -0.680893       -18.5280
  23   1.0000      -0.286806        -7.8044
  24   0.0000      -0.086735        -2.3602
  25   0.0000      -0.086735        -2.3602
  26   0.0000      -0.064540        -1.7562
  27   0.0000       0.000429         0.0117
  28   0.0000       0.020398         0.5550

MULLIKEN ATOMIC CHARGES AND SPIN POPULATIONS
--------------------------------------------
   0 In:    0.000000    1.000000
Sum of atomic charges         :    0.0000000

LOEWDIN ATOMIC CHARGES AND SPIN POPULATIONS
-------------------------------------------
   0 In:    0.000000    1.000000

FINAL SINGLE POINT ENERGY     -5954.552453214761

DIPOLE MOMENT
-------------
                                X             Y             Z
Electronic contribution:     -0.00000      -0.00000      -0.00000
Nuclear contribution   :      0.00000       0.00000       0.00000
                        -----------------------------------------
Total Dipole Moment    :     -0.00000      -0.00000      -0.00000
                        -----------------------------------------
Magnitude (a.u.)       :      0.00000
Magnitude (Debye)      :      0.00000

Rotational constants in cm-1:     0.000000     0.000000     0.000000
Rotational constants in MHz :     0.000000     0.000000     0.000000

                             ****ORCA TERMINATED NORMALLY****
TOTAL RUN TIME: 0 days 0 hours 7 minutes 21 seconds 833 msec
