                         Program Version 5.0.1 -  RELEASE  -
|  1> !uks pbe nori verytightscf soscf notrah
|  2>
|  3> %pal
|  4>   nprocs 32
|  5> end
|  6> %coords
|  7>   charge 0
|  8>   mult 7
|  9>   units bohrs
| 10>   coords
| 11>     Mo 0.0 0.0 0.0
| 12>   end
| 13> end
| 14> %basis
| 15>   gtoname "Mo_sapporo-qzp-2012-diffuse.basis"
| 16>   delECP Mo
| 17> end
| 18> %rel
| 19>   method zora
| 20>   modelpot 1, 0, 0, 0
| 21>   c 137.035999084
| 22> endd                         ****END OF INPUT****

CARTESIAN COORDINATES (ANGSTROEM)
---------------------------------
  Mo     0.000000    0.000000    0.000000

 Total Charge           Charge          ....    0
 Multiplicity           Mult            ....    7
 Number of Electrons    NEL             ....   42
 Basis Dimension        Dim             ....  150

ORBITAL ENERGIES
----------------
                 SPIN UP ORBITALS
  NO   OCC          E(Eh)            E(eV)
   0   1.0000    -746.362661    -20309.5605
   1   1.0000    -103.339616     -2812.0139
   2   1.0000     -93.061565     -2532.3339
   3   1.0000     -93.061565     -2532.3339
   4   1.0000     -93.061565     -2532.3339
   5   1.0000     -17.446403      -474.7408
   6   1.0000     -13.996262      -380.8576
   7   1.0000     -13.996262      -380.8576
   8   1.0000     -13.996262      -380.8576
   9   1.0000      -8.127325      -221.1558
  10   1.0000      -8.127325      -221.1558
  11   1.0000      -8.127325      -221.1558
  12   1.0000      -8.127325      -221.1558
  13   1.0000      -8.127325      -221.1558
  14   1.0000      -2.373370       -64.5827
  15   1.0000      -1.445606       -39.3370
  16   1.0000      -1.445606       -39.3370
  17   1.0000      -1.445606       -39.3370
  18   1.0000      -0.168799        -4.5933
  19   1.0000      -0.168441        -4.5835
  20   1.0000      -0.168441        -4.5835
  21   1.0000      -0.168441        -4.5835
  22   1.0000      -0.168441        -4.5835
  23   1.0000      -0.168441        -4.5835
  24   0.0000      -0.047909        -1.3037
  25   0.0000      -0.047909        -1.3037
  26   0.0000      -0.047909        -1.3037
  27   0.0000      -0.000008        -0.0002
  28   0.0000       0.031202         0.8491

                 SPIN DOWN ORBITALS
  NO   OCC          E(Eh)            E(eV)
   0   1.0000    -746.362649    -20309.5602
   1   1.0000    -103.322800     -2811.5563
   2   1.0000     -93.049446     -2532.0042
   3   1.0000     -93.049446     -2532.0042
   4   1.0000     -93.049446     -2532.0042
   5   1.0000     -17.436670      -474.4759
   6   1.0000     -13.985318      -380.5599
   7   1.0000     -13.985318      -380.5599
   8   1.0000     -13.985318      -380.5599
   9   1.0000      -8.111161      -220.7159
  10   1.0000      -8.111161      -220.7159
  11   1.0000      -8.111161      -220.7159
  12   1.0000      -8.111161      -220.7159
  13   1.0000      -8.111161      -220.7159
  14   1.0000      -2.274918       -61.9037
  15   1.0000      -1.335498       -36.3408
  16   1.0000      -1.335498       -36.3408
  17   1.0000      -1.335498       -36.3408
  18   0.0000      -0.061959        -1.6860
  19   0.0000      -0.043553        -1.1851
  20   0.0000      -0.043553        -1.1851
  21   0.0000      -0.043553        -1.1851
  22   0.0000      -0.043553        -1.1851

MULLIKEN ATOMIC CHARGES AND SPIN POPULATIONS
--------------------------------------------
   0 Mo:   -0.000000    6.000000
Sum of atomic charges         :   -0.0000000

LOEWDIN ATOMIC CHARGES AND SPIN POPULATIONS
-------------------------------------------
   0 Mo:   -0.000000    6.000000

FINAL SINGLE POINT ENERGY     -4090.552630385554

DIPOLE MOMENT
-------------
                                X             Y             Z
Electronic contribution:     -0.00000      -0.00000      -0.00000
Nuclear contribution   :      0.00000       0.00000       0.00000
                        -----------------------------------------
Total Dipole Moment    :     -0.00000      -0.00000      -0.00000
                        -----------------------------------------
Magnitude (a.u.)       :      0.00000
Magnitude (Debye)      :      0.00000

Rotational constants in cm-1:     0.000000     0.000000     0.000000
Rotational constants in MHz :     0.000000     0.000000     0.000000

                             ****ORCA TERMINATED NORMALLY****
TOTAL RUN TIME: 0 days 0 hours 4 minutes 17 seconds 853 msec
