                         Program Version 5.0.1 -  RELEASE  -
|  1> !uks pbe nori verytightscf soscf notrah
|  2>
|  3> %pal
|  4>   nprocs 32
|  5> end
|  6> %coords
|  7>   charge 0
|  8>   mult 7
|  9>   units bohrs
| 10>   coords
| 11>     Mo 0.0 0.0 0.0
| 12>   end
| 13> end
| 14> %basis
| 15>   gtoname "Mo_sarc-zora-tzvpp.basis"
| 16>   delECP Mo
| 17> end
| 18> %rel
| 19>   method zora
| 20>   modelpot 1, 0, 0, 0
| 21>   c 137.035999084
| 22> endd                         ****END OF INPUT****

CARTESIAN COORDINATES (ANGSTROEM)
---------------------------------
  Mo     0.000000    0.000000    0.000000

 Total Charge           Charge          ....    0
 Multiplicity           Mult            ....    7
 Number of Electrons    NEL             ....   42
 Basis Dimension        Dim             ....   98

ORBITAL ENERGIES
----------------
                 SPIN UP ORBITALS
  NO   OCC          E(Eh)            E(eV)
   0   1.0000    -749.001202    -20381.3589
   1   1.0000    -103.846391     -2825.8040
   2   1.0000     -92.743002     -2523.6654
   3   1.0000     -92.743002     -2523.6654
   4   1.0000     -92.743002     -2523.6654
   5   1.0000     -17.599264      -478.9003
   6   1.0000     -13.985062      -380.5529
   7   1.0000     -13.985062      -380.5529
   8   1.0000     -13.985062      -380.5529
   9   1.0000      -8.123442      -221.0501
  10   1.0000      -8.123442      -221.0501
  11   1.0000      -8.123442      -221.0501
  12   1.0000      -8.123442      -221.0501
  13   1.0000      -8.123442      -221.0501
  14   1.0000      -2.395843       -65.1942
  15   1.0000      -1.443174       -39.2708
  16   1.0000      -1.443174       -39.2708
  17   1.0000      -1.443174       -39.2708
  18   1.0000      -0.170453        -4.6383
  19   1.0000      -0.166635        -4.5344
  20   1.0000      -0.166635        -4.5344
  21   1.0000      -0.166635        -4.5344
  22   1.0000      -0.166635        -4.5344
  23   1.0000      -0.166635        -4.5344
  24   0.0000      -0.045277        -1.2321
  25   0.0000      -0.045277        -1.2321
  26   0.0000      -0.045277        -1.2321
  27   0.0000       0.072533         1.9737
  28   0.0000       0.072533         1.9737

                 SPIN DOWN ORBITALS
  NO   OCC          E(Eh)            E(eV)
   0   1.0000    -749.001209    -20381.3591
   1   1.0000    -103.830189     -2825.3631
   2   1.0000     -92.730993     -2523.3386
   3   1.0000     -92.730993     -2523.3386
   4   1.0000     -92.730993     -2523.3386
   5   1.0000     -17.589595      -478.6372
   6   1.0000     -13.974239      -380.2584
   7   1.0000     -13.974239      -380.2584
   8   1.0000     -13.974239      -380.2584
   9   1.0000      -8.107379      -220.6130
  10   1.0000      -8.107379      -220.6130
  11   1.0000      -8.107379      -220.6130
  12   1.0000      -8.107379      -220.6130
  13   1.0000      -8.107379      -220.6130
  14   1.0000      -2.298238       -62.5382
  15   1.0000      -1.333414       -36.2840
  16   1.0000      -1.333414       -36.2840
  17   1.0000      -1.333414       -36.2840
  18   0.0000      -0.061056        -1.6614
  19   0.0000      -0.041374        -1.1258
  20   0.0000      -0.041374        -1.1258
  21   0.0000      -0.041374        -1.1258
  22   0.0000      -0.041374        -1.1258

MULLIKEN ATOMIC CHARGES AND SPIN POPULATIONS
--------------------------------------------
   0 Mo:    0.000000    6.000000
Sum of atomic charges         :    0.0000000

LOEWDIN ATOMIC CHARGES AND SPIN POPULATIONS
-------------------------------------------
   0 Mo:    0.000000    6.000000

FINAL SINGLE POINT ENERGY     -4103.960146079921

DIPOLE MOMENT
-------------
                                X             Y             Z
Electronic contribution:      0.00000      -0.00000      -0.00000
Nuclear contribution   :      0.00000       0.00000       0.00000
                        -----------------------------------------
Total Dipole Moment    :      0.00000      -0.00000      -0.00000
                        -----------------------------------------
Magnitude (a.u.)       :      0.00000
Magnitude (Debye)      :      0.00000

Rotational constants in cm-1:     0.000000     0.000000     0.000000
Rotational constants in MHz :     0.000000     0.000000     0.000000

                             ****ORCA TERMINATED NORMALLY****
TOTAL RUN TIME: 0 days 0 hours 4 minutes 5 seconds 481 msec
