                         Program Version 5.0.1 -  RELEASE  -
|  1> !uks pbe nori verytightscf soscf notrah
|  2>
|  3> %pal
|  4>   nprocs 32
|  5> end
|  6> %coords
|  7>   charge 0
|  8>   mult 7
|  9>   units bohrs
| 10>   coords
| 11>     Mo 0.0 0.0 0.0
| 12>   end
| 13> end
| 14> %basis
| 15>   gtoname "Mo_ugbs.basis"
| 16>   delECP Mo
| 17> end
| 18> %rel
| 19>   method zora
| 20>   modelpot 1, 0, 0, 0
| 21>   c 137.035999084
| 22> endd                         ****END OF INPUT****

CARTESIAN COORDINATES (ANGSTROEM)
---------------------------------
  Mo     0.000000    0.000000    0.000000

 Total Charge           Charge          ....    0
 Multiplicity           Mult            ....    7
 Number of Electrons    NEL             ....   42
 Basis Dimension        Dim             ....  189

ORBITAL ENERGIES
----------------
                 SPIN UP ORBITALS
  NO   OCC          E(Eh)            E(eV)
   0   1.0000    -748.952294    -20380.0280
   1   1.0000    -103.782012     -2824.0521
   2   1.0000     -92.671499     -2521.7197
   3   1.0000     -92.671499     -2521.7197
   4   1.0000     -92.671499     -2521.7197
   5   1.0000     -17.584394      -478.4957
   6   1.0000     -13.971771      -380.1912
   7   1.0000     -13.971771      -380.1912
   8   1.0000     -13.971771      -380.1912
   9   1.0000      -8.110804      -220.7062
  10   1.0000      -8.110804      -220.7062
  11   1.0000      -8.110804      -220.7062
  12   1.0000      -8.110804      -220.7062
  13   1.0000      -8.110804      -220.7062
  14   1.0000      -2.393734       -65.1368
  15   1.0000      -1.441639       -39.2290
  16   1.0000      -1.441639       -39.2290
  17   1.0000      -1.441639       -39.2290
  18   1.0000      -0.170483        -4.6391
  19   1.0000      -0.167020        -4.5448
  20   1.0000      -0.167020        -4.5448
  21   1.0000      -0.167020        -4.5448
  22   1.0000      -0.167020        -4.5448
  23   1.0000      -0.167020        -4.5448
  24   0.0000      -0.033696        -0.9169
  25   0.0000      -0.033696        -0.9169
  26   0.0000      -0.033696        -0.9169
  27   0.0000       0.045638         1.2419
  28   0.0000       0.054881         1.4934

                 SPIN DOWN ORBITALS
  NO   OCC          E(Eh)            E(eV)
   0   1.0000    -748.952277    -20380.0276
   1   1.0000    -103.764592     -2823.5781
   2   1.0000     -92.658544     -2521.3672
   3   1.0000     -92.658544     -2521.3672
   4   1.0000     -92.658544     -2521.3672
   5   1.0000     -17.574922      -478.2379
   6   1.0000     -13.961145      -379.9021
   7   1.0000     -13.961145      -379.9021
   8   1.0000     -13.961145      -379.9021
   9   1.0000      -8.094413      -220.2602
  10   1.0000      -8.094413      -220.2602
  11   1.0000      -8.094413      -220.2602
  12   1.0000      -8.094413      -220.2602
  13   1.0000      -8.094413      -220.2602
  14   1.0000      -2.295852       -62.4733
  15   1.0000      -1.331676       -36.2367
  16   1.0000      -1.331676       -36.2367
  17   1.0000      -1.331676       -36.2367
  18   0.0000      -0.061243        -1.6665
  19   0.0000      -0.041875        -1.1395
  20   0.0000      -0.041875        -1.1395
  21   0.0000      -0.041875        -1.1395
  22   0.0000      -0.041875        -1.1395

MULLIKEN ATOMIC CHARGES AND SPIN POPULATIONS
--------------------------------------------
   0 Mo:    0.000000    6.000000
Sum of atomic charges         :    0.0000000

LOEWDIN ATOMIC CHARGES AND SPIN POPULATIONS
-------------------------------------------
   0 Mo:    0.000000    6.000000

FINAL SINGLE POINT ENERGY     -4104.170807050373

DIPOLE MOMENT
-------------
                                X             Y             Z
Electronic contribution:      0.00000      -0.00000      -0.00000
Nuclear contribution   :      0.00000       0.00000       0.00000
                        -----------------------------------------
Total Dipole Moment    :      0.00000      -0.00000      -0.00000
                        -----------------------------------------
Magnitude (a.u.)       :      0.00000
Magnitude (Debye)      :      0.00000

Rotational constants in cm-1:     0.000000     0.000000     0.000000
Rotational constants in MHz :     0.000000     0.000000     0.000000

                             ****ORCA TERMINATED NORMALLY****
TOTAL RUN TIME: 0 days 0 hours 3 minutes 55 seconds 144 msec
