                         Program Version 5.0.1 -  RELEASE  -
|  1> !uks pbe nori verytightscf nososcf notrah
|  2>
|  3> %pal
|  4>   nprocs 32
|  5> end
|  6> %coords
|  7>   charge 0
|  8>   mult 6
|  9>   units bohrs
| 10>   coords
| 11>     Nb 0.0 0.0 0.0
| 12>   end
| 13> end
| 14> %basis
| 15>   gtoname "Nb_ano-r3.basis"
| 16>   delECP Nb
| 17> end
| 18> %rel
| 19>   method zora
| 20>   modelpot 1, 0, 0, 0
| 21>   c 137.035999084
| 22> end
| 23>
| 24>                          ****END OF INPUT****

CARTESIAN COORDINATES (ANGSTROEM)
---------------------------------
  Nb     0.000000    0.000000    0.000000

 Total Charge           Charge          ....    0
 Multiplicity           Mult            ....    6
 Number of Electrons    NEL             ....   41
 Basis Dimension        Dim             ....  106

ORBITAL ENERGIES
----------------
                 SPIN UP ORBITALS
  NO   OCC          E(Eh)            E(eV)
   0   1.0000    -707.455610    -19250.8458
   1   1.0000     -97.335759     -2648.6407
   2   1.0000     -87.119955     -2370.6545
   3   1.0000     -87.116254     -2370.5538
   4   1.0000     -87.116254     -2370.5538
   5   1.0000     -16.166615      -439.9159
   6   1.0000     -12.807327      -348.5051
   7   1.0000     -12.797772      -348.2451
   8   1.0000     -12.797771      -348.2451
   9   1.0000      -7.231903      -196.7901
  10   1.0000      -7.230177      -196.7431
  11   1.0000      -7.230177      -196.7431
  12   1.0000      -7.223486      -196.5611
  13   1.0000      -7.223486      -196.5611
  14   1.0000      -2.159437       -58.7613
  15   1.0000      -1.296947       -35.2917
  16   1.0000      -1.285053       -34.9681
  17   1.0000      -1.285052       -34.9680
  18   1.0000      -0.163617        -4.4522
  19   1.0000      -0.144052        -3.9199
  20   1.0000      -0.144050        -3.9198
  21   1.0000      -0.129032        -3.5111
  22   1.0000      -0.129032        -3.5111
  23   0.0000      -0.126050        -3.4300
  24   0.0000      -0.004412        -0.1201
  25   0.0000      -0.000478        -0.0130
  26   0.0000      -0.000478        -0.0130
  27   0.0000       0.035773         0.9734

                 SPIN DOWN ORBITALS
  NO   OCC          E(Eh)            E(eV)
   0   1.0000    -707.455569    -19250.8447
   1   1.0000     -97.324857     -2648.3440
   2   1.0000     -87.113202     -2370.4708
   3   1.0000     -87.107547     -2370.3169
   4   1.0000     -87.107547     -2370.3168
   5   1.0000     -16.160133      -439.7396
   6   1.0000     -12.801512      -348.3468
   7   1.0000     -12.789936      -348.0318
   8   1.0000     -12.789935      -348.0318
   9   1.0000      -7.225961      -196.6284
  10   1.0000      -7.217937      -196.4101
  11   1.0000      -7.217937      -196.4100
  12   1.0000      -7.211943      -196.2469
  13   1.0000      -7.211943      -196.2469
  14   1.0000      -2.089407       -56.8557
  15   1.0000      -1.230314       -33.4785
  16   1.0000      -1.197383       -32.5825
  17   1.0000      -1.197381       -32.5824
  18   0.0000      -0.068585        -1.8663
  19   0.0000      -0.053010        -1.4425
  20   0.0000      -0.033830        -0.9206
  21   0.0000      -0.033829        -0.9205
  22   0.0000      -0.023383        -0.6363

MULLIKEN ATOMIC CHARGES AND SPIN POPULATIONS
--------------------------------------------
   0 Nb:   -0.000000    5.000000
Sum of atomic charges         :   -0.0000000

LOEWDIN ATOMIC CHARGES AND SPIN POPULATIONS
-------------------------------------------
   0 Nb:   -0.000000    5.000000

FINAL SINGLE POINT ENERGY     -3863.865843004175

DIPOLE MOMENT
-------------
                                X             Y             Z
Electronic contribution:      0.00000      -0.00000      -0.00000
Nuclear contribution   :      0.00000       0.00000       0.00000
                        -----------------------------------------
Total Dipole Moment    :      0.00000      -0.00000      -0.00000
                        -----------------------------------------
Magnitude (a.u.)       :      0.00000
Magnitude (Debye)      :      0.00000

Rotational constants in cm-1:     0.000000     0.000000     0.000000
Rotational constants in MHz :     0.000000     0.000000     0.000000

                             ****ORCA TERMINATED NORMALLY****
TOTAL RUN TIME: 0 days 2 hours 11 minutes 15 seconds 790 msec
