                         Program Version 5.0.1 -  RELEASE  -
|  1> !uks pbe nori verytightscf soscf notrah
|  2>
|  3> %pal
|  4>   nprocs 32
|  5> end
|  6> %coords
|  7>   charge 0
|  8>   mult 6
|  9>   units bohrs
| 10>   coords
| 11>     Nb 0.0 0.0 0.0
| 12>   end
| 13> end
| 14> %basis
| 15>   gtoname "Nb_sarc-zora-tzvpp.basis"
| 16>   delECP Nb
| 17> end
| 18> %rel
| 19>   method zora
| 20>   modelpot 1, 0, 0, 0
| 21>   c 137.035999084
| 22> endd                         ****END OF INPUT****

CARTESIAN COORDINATES (ANGSTROEM)
---------------------------------
  Nb     0.000000    0.000000    0.000000

 Total Charge           Charge          ....    0
 Multiplicity           Mult            ....    6
 Number of Electrons    NEL             ....   41
 Basis Dimension        Dim             ....   98

ORBITAL ENERGIES
----------------
                 SPIN UP ORBITALS
  NO   OCC          E(Eh)            E(eV)
   0   1.0000    -709.755548    -19313.4304
   1   1.0000     -97.550566     -2654.4858
   2   1.0000     -87.022416     -2368.0003
   3   1.0000     -87.018711     -2367.8995
   4   1.0000     -87.018709     -2367.8994
   5   1.0000     -16.210877      -441.1204
   6   1.0000     -12.796787      -348.2183
   7   1.0000     -12.787211      -347.9577
   8   1.0000     -12.787205      -347.9575
   9   1.0000      -7.220184      -196.4712
  10   1.0000      -7.218413      -196.4230
  11   1.0000      -7.218408      -196.4229
  12   1.0000      -7.211708      -196.2406
  13   1.0000      -7.211708      -196.2406
  14   1.0000      -2.168524       -59.0085
  15   1.0000      -1.297393       -35.3039
  16   1.0000      -1.285197       -34.9720
  17   1.0000      -1.285187       -34.9717
  18   1.0000      -0.164475        -4.4756
  19   1.0000      -0.143310        -3.8997
  20   1.0000      -0.143297        -3.8993
  21   1.0000      -0.128490        -3.4964
  22   1.0000      -0.128490        -3.4964
  23   0.0000      -0.126272        -3.4360
  24   0.0000      -0.049699        -1.3524
  25   0.0000      -0.046529        -1.2661
  26   0.0000      -0.046526        -1.2660
  27   0.0000       0.063493         1.7277

                 SPIN DOWN ORBITALS
  NO   OCC          E(Eh)            E(eV)
   0   1.0000    -709.755511    -19313.4293
   1   1.0000     -97.539797     -2654.1928
   2   1.0000     -87.015751     -2367.8190
   3   1.0000     -87.010131     -2367.6660
   4   1.0000     -87.010127     -2367.6659
   5   1.0000     -16.204240      -440.9398
   6   1.0000     -12.790818      -348.0559
   7   1.0000     -12.779175      -347.7390
   8   1.0000     -12.779168      -347.7388
   9   1.0000      -7.214110      -196.3059
  10   1.0000      -7.206083      -196.0875
  11   1.0000      -7.206080      -196.0874
  12   1.0000      -7.200035      -195.9229
  13   1.0000      -7.200035      -195.9229
  14   1.0000      -2.099051       -57.1181
  15   1.0000      -1.230761       -33.4907
  16   1.0000      -1.197768       -32.5929
  17   1.0000      -1.197747       -32.5923
  18   0.0000      -0.071568        -1.9475
  19   0.0000      -0.053674        -1.4605
  20   0.0000      -0.034276        -0.9327
  21   0.0000      -0.034269        -0.9325
  22   0.0000      -0.023410        -0.6370

MULLIKEN ATOMIC CHARGES AND SPIN POPULATIONS
--------------------------------------------
   0 Nb:   -0.000000    5.000000
Sum of atomic charges         :   -0.0000000

LOEWDIN ATOMIC CHARGES AND SPIN POPULATIONS
-------------------------------------------
   0 Nb:    0.000000    5.000000

FINAL SINGLE POINT ENERGY     -3869.552744715085

DIPOLE MOMENT
-------------
                                X             Y             Z
Electronic contribution:      0.00000       0.00000      -0.00000
Nuclear contribution   :      0.00000       0.00000       0.00000
                        -----------------------------------------
Total Dipole Moment    :      0.00000       0.00000      -0.00000
                        -----------------------------------------
Magnitude (a.u.)       :      0.00000
Magnitude (Debye)      :      0.00000

Rotational constants in cm-1:     0.000000     0.000000     0.000000
Rotational constants in MHz :     0.000000     0.000000     0.000000

                             ****ORCA TERMINATED NORMALLY****
TOTAL RUN TIME: 0 days 0 hours 7 minutes 3 seconds 722 msec
