                         Program Version 5.0.1 -  RELEASE  -
|  1> !uks pbe nori verytightscf soscf notrah
|  2>
|  3> %pal
|  4>   nprocs 32
|  5> end
|  6> %coords
|  7>   charge 0
|  8>   mult 6
|  9>   units bohrs
| 10>   coords
| 11>     Nb 0.0 0.0 0.0
| 12>   end
| 13> end
| 14> %basis
| 15>   gtoname "Nb_sapporo-qzp-2012-diffuse.basis"
| 16>   delECP Nb
| 17> end
| 18> %rel
| 19>   method zora
| 20>   modelpot 1, 0, 0, 0
| 21>   c 137.035999084
| 22> endd                         ****END OF INPUT****

CARTESIAN COORDINATES (ANGSTROEM)
---------------------------------
  Nb     0.000000    0.000000    0.000000

 Total Charge           Charge          ....    0
 Multiplicity           Mult            ....    6
 Number of Electrons    NEL             ....   41
 Basis Dimension        Dim             ....  150

ORBITAL ENERGIES
----------------
                 SPIN UP ORBITALS
  NO   OCC          E(Eh)            E(eV)
   0   1.0000    -707.607224    -19254.9715
   1   1.0000     -97.129404     -2643.0254
   2   1.0000     -87.319201     -2376.0763
   3   1.0000     -87.315441     -2375.9739
   4   1.0000     -87.315440     -2375.9739
   5   1.0000     -16.080075      -437.5611
   6   1.0000     -12.807665      -348.5143
   7   1.0000     -12.798105      -348.2542
   8   1.0000     -12.798104      -348.2541
   9   1.0000      -7.222497      -196.5341
  10   1.0000      -7.220737      -196.4863
  11   1.0000      -7.220736      -196.4862
  12   1.0000      -7.214046      -196.3042
  13   1.0000      -7.214046      -196.3042
  14   1.0000      -2.150336       -58.5136
  15   1.0000      -1.299771       -35.3686
  16   1.0000      -1.287814       -35.0432
  17   1.0000      -1.287811       -35.0431
  18   1.0000      -0.163158        -4.4397
  19   1.0000      -0.145055        -3.9471
  20   1.0000      -0.145050        -3.9470
  21   1.0000      -0.130022        -3.5381
  22   1.0000      -0.130022        -3.5381
  23   0.0000      -0.127064        -3.4576
  24   0.0000      -0.051952        -1.4137
  25   0.0000      -0.049051        -1.3347
  26   0.0000      -0.049050        -1.3347
  27   0.0000      -0.001472        -0.0401

                 SPIN DOWN ORBITALS
  NO   OCC          E(Eh)            E(eV)
   0   1.0000    -707.607199    -19254.9708
   1   1.0000     -97.118275     -2642.7226
   2   1.0000     -87.312492     -2375.8937
   3   1.0000     -87.306804     -2375.7389
   4   1.0000     -87.306803     -2375.7389
   5   1.0000     -16.073377      -437.3788
   6   1.0000     -12.801630      -348.3501
   7   1.0000     -12.789971      -348.0328
   8   1.0000     -12.789968      -348.0327
   9   1.0000      -7.216401      -196.3683
  10   1.0000      -7.208337      -196.1488
  11   1.0000      -7.208336      -196.1488
  12   1.0000      -7.202310      -195.9848
  13   1.0000      -7.202310      -195.9848
  14   1.0000      -2.080234       -56.6060
  15   1.0000      -1.233152       -33.5558
  16   1.0000      -1.200167       -32.6582
  17   1.0000      -1.200161       -32.6580
  18   0.0000      -0.071886        -1.9561
  19   0.0000      -0.055663        -1.5147
  20   0.0000      -0.035751        -0.9728
  21   0.0000      -0.035749        -0.9728
  22   0.0000      -0.025327        -0.6892

MULLIKEN ATOMIC CHARGES AND SPIN POPULATIONS
--------------------------------------------
   0 Nb:    0.000000    5.000000
Sum of atomic charges         :    0.0000000

LOEWDIN ATOMIC CHARGES AND SPIN POPULATIONS
-------------------------------------------
   0 Nb:    0.000000    5.000000

FINAL SINGLE POINT ENERGY     -3857.932441726120

DIPOLE MOMENT
-------------
                                X             Y             Z
Electronic contribution:      0.00000       0.00000       0.00000
Nuclear contribution   :      0.00000       0.00000       0.00000
                        -----------------------------------------
Total Dipole Moment    :      0.00000       0.00000       0.00000
                        -----------------------------------------
Magnitude (a.u.)       :      0.00000
Magnitude (Debye)      :      0.00000

Rotational constants in cm-1:     0.000000     0.000000     0.000000
Rotational constants in MHz :     0.000000     0.000000     0.000000

                             ****ORCA TERMINATED NORMALLY****
TOTAL RUN TIME: 0 days 0 hours 6 minutes 16 seconds 14 msec
