                         Program Version 5.0.1 -  RELEASE  -
|  1> !uks pbe nori verytightscf soscf notrah
|  2>
|  3> %pal
|  4>   nprocs 32
|  5> end
|  6> %coords
|  7>   charge 0
|  8>   mult 6
|  9>   units bohrs
| 10>   coords
| 11>     Nb 0.0 0.0 0.0
| 12>   end
| 13> end
| 14> %basis
| 15>   gtoname "Nb_ugbs.basis"
| 16>   delECP Nb
| 17> end
| 18> %rel
| 19>   method zora
| 20>   modelpot 1, 0, 0, 0
| 21>   c 137.035999084
| 22> endd                         ****END OF INPUT****

CARTESIAN COORDINATES (ANGSTROEM)
---------------------------------
  Nb     0.000000    0.000000    0.000000

 Total Charge           Charge          ....    0
 Multiplicity           Mult            ....    6
 Number of Electrons    NEL             ....   41
 Basis Dimension        Dim             ....  190

ORBITAL ENERGIES
----------------
                 SPIN UP ORBITALS
  NO   OCC          E(Eh)            E(eV)
   0   1.0000    -709.708573    -19312.1521
   1   1.0000     -97.490276     -2652.8453
   2   1.0000     -86.955728     -2366.1857
   3   1.0000     -86.951795     -2366.0786
   4   1.0000     -86.951794     -2366.0786
   5   1.0000     -16.198299      -440.7781
   6   1.0000     -12.786707      -347.9440
   7   1.0000     -12.775617      -347.6422
   8   1.0000     -12.775615      -347.6421
   9   1.0000      -7.210344      -196.2034
  10   1.0000      -7.208234      -196.1460
  11   1.0000      -7.208232      -196.1460
  12   1.0000      -7.200543      -195.9367
  13   1.0000      -7.200543      -195.9367
  14   1.0000      -2.167285       -58.9748
  15   1.0000      -1.298653       -35.3382
  16   1.0000      -1.283300       -34.9204
  17   1.0000      -1.283295       -34.9202
  18   1.0000      -0.164847        -4.4857
  19   1.0000      -0.144118        -3.9216
  20   1.0000      -0.144111        -3.9215
  21   1.0000      -0.128134        -3.4867
  22   1.0000      -0.128134        -3.4867
  23   0.0000      -0.128529        -3.4974
  24   0.0000      -0.037596        -1.0230
  25   0.0000      -0.033218        -0.9039
  26   0.0000      -0.033216        -0.9039
  27   0.0000       0.005510         0.1499

                 SPIN DOWN ORBITALS
  NO   OCC          E(Eh)            E(eV)
   0   1.0000    -709.708522    -19312.1507
   1   1.0000     -97.478705     -2652.5304
   2   1.0000     -86.948522     -2365.9896
   3   1.0000     -86.942554     -2365.8272
   4   1.0000     -86.942552     -2365.8271
   5   1.0000     -16.191796      -440.6012
   6   1.0000     -12.780846      -347.7845
   7   1.0000     -12.767713      -347.4271
   8   1.0000     -12.767709      -347.4270
   9   1.0000      -7.204072      -196.0328
  10   1.0000      -7.195713      -195.8053
  11   1.0000      -7.195711      -195.8052
  12   1.0000      -7.188641      -195.6129
  13   1.0000      -7.188641      -195.6129
  14   1.0000      -2.097607       -57.0788
  15   1.0000      -1.230738       -33.4901
  16   1.0000      -1.196136       -32.5485
  17   1.0000      -1.196127       -32.5483
  18   0.0000      -0.071794        -1.9536
  19   0.0000      -0.054072        -1.4714
  20   0.0000      -0.035466        -0.9651
  21   0.0000      -0.035463        -0.9650
  22   0.0000      -0.023415        -0.6371

MULLIKEN ATOMIC CHARGES AND SPIN POPULATIONS
--------------------------------------------
   0 Nb:    0.000000    5.000000
Sum of atomic charges         :    0.0000000

LOEWDIN ATOMIC CHARGES AND SPIN POPULATIONS
-------------------------------------------
   0 Nb:    0.000000    5.000000

FINAL SINGLE POINT ENERGY     -3869.740256615857

DIPOLE MOMENT
-------------
                                X             Y             Z
Electronic contribution:     -0.00000      -0.00000       0.00000
Nuclear contribution   :      0.00000       0.00000       0.00000
                        -----------------------------------------
Total Dipole Moment    :     -0.00000      -0.00000       0.00000
                        -----------------------------------------
Magnitude (a.u.)       :      0.00000
Magnitude (Debye)      :      0.00000

Rotational constants in cm-1:     0.000000     0.000000     0.000000
Rotational constants in MHz :     0.000000     0.000000     0.000000

                             ****ORCA TERMINATED NORMALLY****
TOTAL RUN TIME: 0 days 0 hours 6 minutes 29 seconds 887 msec
