                         Program Version 5.0.1 -  RELEASE  -
|  1> !uks pbe nori verytightscf soscf notrah
|  2>
|  3> %pal
|  4>   nprocs 32
|  5> end
|  6> %coords
|  7>   charge 0
|  8>   mult 1
|  9>   units bohrs
| 10>   coords
| 11>     Pd 0.0 0.0 0.0
| 12>   end
| 13> end
| 14> %basis
| 15>   gtoname "Pd_ano-r3.basis"
| 16>   delECP Pd
| 17> end
| 18> %rel
| 19>   method zora
| 20>   modelpot 1, 0, 0, 0
| 21>   c 137.035999084
| 22> endd                         ****END OF INPUT****

CARTESIAN COORDINATES (ANGSTROEM)
---------------------------------
  Pd     0.000000    0.000000    0.000000

 Total Charge           Charge          ....    0
 Multiplicity           Mult            ....    1
 Number of Electrons    NEL             ....   46
 Basis Dimension        Dim             ....  101

ORBITAL ENERGIES
----------------
                 SPIN UP ORBITALS
  NO   OCC          E(Eh)            E(eV)
   0   1.0000    -914.662585    -24889.2343
   1   1.0000    -130.715554     -3556.9511
   2   1.0000    -117.518775     -3197.8484
   3   1.0000    -117.518775     -3197.8484
   4   1.0000    -117.518775     -3197.8484
   5   1.0000     -23.453091      -638.1911
   6   1.0000     -19.079970      -519.1924
   7   1.0000     -19.079970      -519.1924
   8   1.0000     -19.079970      -519.1924
   9   1.0000     -12.008995      -326.7814
  10   1.0000     -12.008995      -326.7814
  11   1.0000     -12.008995      -326.7814
  12   1.0000     -12.008995      -326.7814
  13   1.0000     -12.008995      -326.7814
  14   1.0000      -3.132553       -85.2411
  15   1.0000      -1.883633       -51.2563
  16   1.0000      -1.883633       -51.2563
  17   1.0000      -1.883633       -51.2563
  18   1.0000      -0.139917        -3.8073
  19   1.0000      -0.139917        -3.8073
  20   1.0000      -0.139917        -3.8073
  21   1.0000      -0.139917        -3.8073
  22   1.0000      -0.139917        -3.8073
  23   0.0000      -0.113741        -3.0950
  24   0.0000       0.130324         3.5463
  25   0.0000       0.130324         3.5463
  26   0.0000       0.130324         3.5463
  27   0.0000       0.305706         8.3187

                 SPIN DOWN ORBITALS
  NO   OCC          E(Eh)            E(eV)
   0   1.0000    -914.662585    -24889.2343
   1   1.0000    -130.715554     -3556.9511
   2   1.0000    -117.518775     -3197.8484
   3   1.0000    -117.518775     -3197.8484
   4   1.0000    -117.518775     -3197.8484
   5   1.0000     -23.453091      -638.1911
   6   1.0000     -19.079970      -519.1924
   7   1.0000     -19.079970      -519.1924
   8   1.0000     -19.079970      -519.1924
   9   1.0000     -12.008995      -326.7814
  10   1.0000     -12.008995      -326.7814
  11   1.0000     -12.008995      -326.7814
  12   1.0000     -12.008995      -326.7814
  13   1.0000     -12.008995      -326.7814
  14   1.0000      -3.132553       -85.2411
  15   1.0000      -1.883633       -51.2563
  16   1.0000      -1.883633       -51.2563
  17   1.0000      -1.883633       -51.2563
  18   1.0000      -0.139917        -3.8073
  19   1.0000      -0.139917        -3.8073
  20   1.0000      -0.139917        -3.8073
  21   1.0000      -0.139917        -3.8073
  22   1.0000      -0.139917        -3.8073
  23   0.0000      -0.113741        -3.0950
  24   0.0000       0.130324         3.5463
  25   0.0000       0.130324         3.5463
  26   0.0000       0.130324         3.5463
  27   0.0000       0.305706         8.3187

MULLIKEN ATOMIC CHARGES AND SPIN POPULATIONS
--------------------------------------------
   0 Pd:   -0.000000    0.000000
Sum of atomic charges         :   -0.0000000

LOEWDIN ATOMIC CHARGES AND SPIN POPULATIONS
-------------------------------------------
   0 Pd:   -0.000000    0.000000

FINAL SINGLE POINT ENERGY     -5118.241939831914

DIPOLE MOMENT
-------------
                                X             Y             Z
Electronic contribution:     -0.00000      -0.00000       0.00000
Nuclear contribution   :      0.00000       0.00000       0.00000
                        -----------------------------------------
Total Dipole Moment    :     -0.00000      -0.00000       0.00000
                        -----------------------------------------
Magnitude (a.u.)       :      0.00000
Magnitude (Debye)      :      0.00000

Rotational constants in cm-1:     0.000000     0.000000     0.000000
Rotational constants in MHz :     0.000000     0.000000     0.000000

                             ****ORCA TERMINATED NORMALLY****
TOTAL RUN TIME: 0 days 0 hours 17 minutes 52 seconds 918 msec
