                         Program Version 5.0.1 -  RELEASE  -
|  1> !uks pbe nori verytightscf soscf notrah
|  2>
|  3> %pal
|  4>   nprocs 32
|  5> end
|  6> %coords
|  7>   charge 0
|  8>   mult 1
|  9>   units bohrs
| 10>   coords
| 11>     Pd 0.0 0.0 0.0
| 12>   end
| 13> end
| 14> %basis
| 15>   gtoname "Pd_sapporo-qzp-2012-diffuse.basis"
| 16>   delECP Pd
| 17> end
| 18> %rel
| 19>   method zora
| 20>   modelpot 1, 0, 0, 0
| 21>   c 137.035999084
| 22> endd                         ****END OF INPUT****

CARTESIAN COORDINATES (ANGSTROEM)
---------------------------------
  Pd     0.000000    0.000000    0.000000

 Total Charge           Charge          ....    0
 Multiplicity           Mult            ....    1
 Number of Electrons    NEL             ....   46
 Basis Dimension        Dim             ....  150

ORBITAL ENERGIES
----------------
                 SPIN UP ORBITALS
  NO   OCC          E(Eh)            E(eV)
   0   1.0000    -912.877447    -24840.6582
   1   1.0000    -130.108227     -3540.4249
   2   1.0000    -117.812191     -3205.8327
   3   1.0000    -117.812191     -3205.8327
   4   1.0000    -117.812191     -3205.8327
   5   1.0000     -23.268706      -633.1737
   6   1.0000     -19.088055      -519.4124
   7   1.0000     -19.088055      -519.4124
   8   1.0000     -19.088055      -519.4124
   9   1.0000     -12.015562      -326.9601
  10   1.0000     -12.015562      -326.9601
  11   1.0000     -12.015562      -326.9601
  12   1.0000     -12.015562      -326.9601
  13   1.0000     -12.015562      -326.9601
  14   1.0000      -3.112133       -84.6854
  15   1.0000      -1.893092       -51.5136
  16   1.0000      -1.893092       -51.5136
  17   1.0000      -1.893092       -51.5136
  18   1.0000      -0.148659        -4.0452
  19   1.0000      -0.148659        -4.0452
  20   1.0000      -0.148659        -4.0452
  21   1.0000      -0.148659        -4.0452
  22   1.0000      -0.148659        -4.0452
  23   0.0000      -0.120146        -3.2693
  24   0.0000      -0.002634        -0.0717
  25   0.0000      -0.002634        -0.0717
  26   0.0000      -0.002634        -0.0717
  27   0.0000       0.016299         0.4435

                 SPIN DOWN ORBITALS
  NO   OCC          E(Eh)            E(eV)
   0   1.0000    -912.877447    -24840.6582
   1   1.0000    -130.108227     -3540.4249
   2   1.0000    -117.812191     -3205.8327
   3   1.0000    -117.812191     -3205.8327
   4   1.0000    -117.812191     -3205.8327
   5   1.0000     -23.268706      -633.1737
   6   1.0000     -19.088055      -519.4124
   7   1.0000     -19.088055      -519.4124
   8   1.0000     -19.088055      -519.4124
   9   1.0000     -12.015562      -326.9601
  10   1.0000     -12.015562      -326.9601
  11   1.0000     -12.015562      -326.9601
  12   1.0000     -12.015562      -326.9601
  13   1.0000     -12.015562      -326.9601
  14   1.0000      -3.112133       -84.6854
  15   1.0000      -1.893092       -51.5136
  16   1.0000      -1.893092       -51.5136
  17   1.0000      -1.893092       -51.5136
  18   1.0000      -0.148659        -4.0452
  19   1.0000      -0.148659        -4.0452
  20   1.0000      -0.148659        -4.0452
  21   1.0000      -0.148659        -4.0452
  22   1.0000      -0.148659        -4.0452
  23   0.0000      -0.120146        -3.2693
  24   0.0000      -0.002634        -0.0717
  25   0.0000      -0.002634        -0.0717
  26   0.0000      -0.002634        -0.0717
  27   0.0000       0.016299         0.4435

MULLIKEN ATOMIC CHARGES AND SPIN POPULATIONS
--------------------------------------------
   0 Pd:    0.000000    0.000000
Sum of atomic charges         :    0.0000000

LOEWDIN ATOMIC CHARGES AND SPIN POPULATIONS
-------------------------------------------
   0 Pd:    0.000000    0.000000

FINAL SINGLE POINT ENERGY     -5104.087345205919

DIPOLE MOMENT
-------------
                                X             Y             Z
Electronic contribution:      0.00000       0.00000       0.00000
Nuclear contribution   :      0.00000       0.00000       0.00000
                        -----------------------------------------
Total Dipole Moment    :      0.00000       0.00000       0.00000
                        -----------------------------------------
Magnitude (a.u.)       :      0.00000
Magnitude (Debye)      :      0.00000

Rotational constants in cm-1:     0.000000     0.000000     0.000000
Rotational constants in MHz :     0.000000     0.000000     0.000000

                             ****ORCA TERMINATED NORMALLY****
TOTAL RUN TIME: 0 days 0 hours 3 minutes 47 seconds 976 msec
