                         Program Version 5.0.1 -  RELEASE  -
|  1> !uks pbe nori verytightscf soscf notrah
|  2>
|  3> %pal
|  4>   nprocs 32
|  5> end
|  6> %coords
|  7>   charge 0
|  8>   mult 1
|  9>   units bohrs
| 10>   coords
| 11>     Pd 0.0 0.0 0.0
| 12>   end
| 13> end
| 14> %basis
| 15>   gtoname "Pd_sarc-zora-tzvpp.basis"
| 16>   delECP Pd
| 17> end
| 18> %rel
| 19>   method zora
| 20>   modelpot 1, 0, 0, 0
| 21>   c 137.035999084
| 22> endd                         ****END OF INPUT****

CARTESIAN COORDINATES (ANGSTROEM)
---------------------------------
  Pd     0.000000    0.000000    0.000000

 Total Charge           Charge          ....    0
 Multiplicity           Mult            ....    1
 Number of Electrons    NEL             ....   46
 Basis Dimension        Dim             ....   98

ORBITAL ENERGIES
----------------
                 SPIN UP ORBITALS
  NO   OCC          E(Eh)            E(eV)
   0   1.0000    -918.324466    -24988.8791
   1   1.0000    -131.134078     -3568.3397
   2   1.0000    -117.441751     -3195.7525
   3   1.0000    -117.441751     -3195.7525
   4   1.0000    -117.441751     -3195.7525
   5   1.0000     -23.556798      -641.0131
   6   1.0000     -19.089946      -519.4638
   7   1.0000     -19.089946      -519.4638
   8   1.0000     -19.089946      -519.4638
   9   1.0000     -12.016886      -326.9961
  10   1.0000     -12.016886      -326.9961
  11   1.0000     -12.016886      -326.9961
  12   1.0000     -12.016886      -326.9961
  13   1.0000     -12.016886      -326.9961
  14   1.0000      -3.163596       -86.0858
  15   1.0000      -1.896247       -51.5995
  16   1.0000      -1.896247       -51.5995
  17   1.0000      -1.896247       -51.5995
  18   1.0000      -0.148255        -4.0342
  19   1.0000      -0.148255        -4.0342
  20   1.0000      -0.148255        -4.0342
  21   1.0000      -0.148255        -4.0342
  22   1.0000      -0.148255        -4.0342
  23   0.0000      -0.123263        -3.3542
  24   0.0000      -0.000242        -0.0066
  25   0.0000      -0.000242        -0.0066
  26   0.0000      -0.000242        -0.0066
  27   0.0000       0.128032         3.4839

                 SPIN DOWN ORBITALS
  NO   OCC          E(Eh)            E(eV)
   0   1.0000    -918.324466    -24988.8791
   1   1.0000    -131.134078     -3568.3397
   2   1.0000    -117.441751     -3195.7525
   3   1.0000    -117.441751     -3195.7525
   4   1.0000    -117.441751     -3195.7525
   5   1.0000     -23.556798      -641.0131
   6   1.0000     -19.089946      -519.4638
   7   1.0000     -19.089946      -519.4638
   8   1.0000     -19.089946      -519.4638
   9   1.0000     -12.016886      -326.9961
  10   1.0000     -12.016886      -326.9961
  11   1.0000     -12.016886      -326.9961
  12   1.0000     -12.016886      -326.9961
  13   1.0000     -12.016886      -326.9961
  14   1.0000      -3.163596       -86.0858
  15   1.0000      -1.896247       -51.5995
  16   1.0000      -1.896247       -51.5995
  17   1.0000      -1.896247       -51.5995
  18   1.0000      -0.148255        -4.0342
  19   1.0000      -0.148255        -4.0342
  20   1.0000      -0.148255        -4.0342
  21   1.0000      -0.148255        -4.0342
  22   1.0000      -0.148255        -4.0342
  23   0.0000      -0.123263        -3.3542
  24   0.0000      -0.000242        -0.0066
  25   0.0000      -0.000242        -0.0066
  26   0.0000      -0.000242        -0.0066
  27   0.0000       0.128032         3.4839

MULLIKEN ATOMIC CHARGES AND SPIN POPULATIONS
--------------------------------------------
   0 Pd:   -0.000000    0.000000
Sum of atomic charges         :   -0.0000000

LOEWDIN ATOMIC CHARGES AND SPIN POPULATIONS
-------------------------------------------
   0 Pd:   -0.000000    0.000000

FINAL SINGLE POINT ENERGY     -5127.054442400614

DIPOLE MOMENT
-------------
                                X             Y             Z
Electronic contribution:      0.00000      -0.00000      -0.00000
Nuclear contribution   :      0.00000       0.00000       0.00000
                        -----------------------------------------
Total Dipole Moment    :      0.00000      -0.00000      -0.00000
                        -----------------------------------------
Magnitude (a.u.)       :      0.00000
Magnitude (Debye)      :      0.00000

Rotational constants in cm-1:     0.000000     0.000000     0.000000
Rotational constants in MHz :     0.000000     0.000000     0.000000

                             ****ORCA TERMINATED NORMALLY****
TOTAL RUN TIME: 0 days 0 hours 6 minutes 4 seconds 573 msec
