                         Program Version 5.0.1 -  RELEASE  -
|  1> !uks pbe nori verytightscf soscf notrah
|  2>
|  3> %pal
|  4>   nprocs 32
|  5> end
|  6> %coords
|  7>   charge 0
|  8>   mult 1
|  9>   units bohrs
| 10>   coords
| 11>     Pd 0.0 0.0 0.0
| 12>   end
| 13> end
| 14> %basis
| 15>   gtoname "Pd_ugbs.basis"
| 16>   delECP Pd
| 17> end
| 18> %rel
| 19>   method zora
| 20>   modelpot 1, 0, 0, 0
| 21>   c 137.035999084
| 22> endd                         ****END OF INPUT****

CARTESIAN COORDINATES (ANGSTROEM)
---------------------------------
  Pd     0.000000    0.000000    0.000000

 Total Charge           Charge          ....    0
 Multiplicity           Mult            ....    1
 Number of Electrons    NEL             ....   46
 Basis Dimension        Dim             ....  185

ORBITAL ENERGIES
----------------
                 SPIN UP ORBITALS
  NO   OCC          E(Eh)            E(eV)
   0   1.0000    -918.268168    -24987.3472
   1   1.0000    -131.045488     -3565.9290
   2   1.0000    -117.342791     -3193.0597
   3   1.0000    -117.342791     -3193.0597
   4   1.0000    -117.342791     -3193.0597
   5   1.0000     -23.530224      -640.2900
   6   1.0000     -19.065141      -518.7889
   7   1.0000     -19.065141      -518.7889
   8   1.0000     -19.065141      -518.7889
   9   1.0000     -11.992220      -326.3249
  10   1.0000     -11.992220      -326.3249
  11   1.0000     -11.992220      -326.3249
  12   1.0000     -11.992220      -326.3249
  13   1.0000     -11.992220      -326.3249
  14   1.0000      -3.157021       -85.9069
  15   1.0000      -1.891107       -51.4596
  16   1.0000      -1.891107       -51.4596
  17   1.0000      -1.891107       -51.4596
  18   1.0000      -0.147381        -4.0104
  19   1.0000      -0.147381        -4.0104
  20   1.0000      -0.147381        -4.0104
  21   1.0000      -0.147381        -4.0104
  22   1.0000      -0.147381        -4.0104
  23   0.0000      -0.091949        -2.5021
  24   0.0000       0.076537         2.0827
  25   0.0000       0.076537         2.0827
  26   0.0000       0.076537         2.0827
  27   0.0000       0.146560         3.9881

                 SPIN DOWN ORBITALS
  NO   OCC          E(Eh)            E(eV)
   0   1.0000    -918.268168    -24987.3472
   1   1.0000    -131.045488     -3565.9290
   2   1.0000    -117.342791     -3193.0597
   3   1.0000    -117.342791     -3193.0597
   4   1.0000    -117.342791     -3193.0597
   5   1.0000     -23.530224      -640.2900
   6   1.0000     -19.065141      -518.7889
   7   1.0000     -19.065141      -518.7889
   8   1.0000     -19.065141      -518.7889
   9   1.0000     -11.992220      -326.3249
  10   1.0000     -11.992220      -326.3249
  11   1.0000     -11.992220      -326.3249
  12   1.0000     -11.992220      -326.3249
  13   1.0000     -11.992220      -326.3249
  14   1.0000      -3.157021       -85.9069
  15   1.0000      -1.891107       -51.4596
  16   1.0000      -1.891107       -51.4596
  17   1.0000      -1.891107       -51.4596
  18   1.0000      -0.147381        -4.0104
  19   1.0000      -0.147381        -4.0104
  20   1.0000      -0.147381        -4.0104
  21   1.0000      -0.147381        -4.0104
  22   1.0000      -0.147381        -4.0104
  23   0.0000      -0.091949        -2.5021
  24   0.0000       0.076537         2.0827
  25   0.0000       0.076537         2.0827
  26   0.0000       0.076537         2.0827
  27   0.0000       0.146560         3.9881

MULLIKEN ATOMIC CHARGES AND SPIN POPULATIONS
--------------------------------------------
   0 Pd:    0.000000   -0.000000
Sum of atomic charges         :    0.0000000

LOEWDIN ATOMIC CHARGES AND SPIN POPULATIONS
-------------------------------------------
   0 Pd:    0.000000   -0.000000

FINAL SINGLE POINT ENERGY     -5127.395569373315

DIPOLE MOMENT
-------------
                                X             Y             Z
Electronic contribution:     -0.00000       0.00000      -0.00000
Nuclear contribution   :      0.00000       0.00000       0.00000
                        -----------------------------------------
Total Dipole Moment    :     -0.00000       0.00000      -0.00000
                        -----------------------------------------
Magnitude (a.u.)       :      0.00000
Magnitude (Debye)      :      0.00000

Rotational constants in cm-1:     0.000000     0.000000     0.000000
Rotational constants in MHz :     0.000000     0.000000     0.000000

                             ****ORCA TERMINATED NORMALLY****
TOTAL RUN TIME: 0 days 0 hours 6 minutes 28 seconds 600 msec
