                         Program Version 5.0.1 -  RELEASE  -
|  1> !uks pbe nori verytightscf soscf notrah
|  2>
|  3> %pal
|  4>   nprocs 32
|  5> end
|  6> %coords
|  7>   charge 0
|  8>   mult 2
|  9>   units bohrs
| 10>   coords
| 11>     Rb 0.0 0.0 0.0
| 12>   end
| 13> end
| 14> %basis
| 15>   gtoname "Rb_sarc-zora-tzvpp.basis"
| 16>   delECP Rb
| 17> end
| 18> %rel
| 19>   method zora
| 20>   modelpot 1, 0, 0, 0
| 21>   c 137.035999084
| 22> endd                         ****END OF INPUT****

CARTESIAN COORDINATES (ANGSTROEM)
---------------------------------
  Rb     0.000000    0.000000    0.000000

 Total Charge           Charge          ....    0
 Multiplicity           Mult            ....    2
 Number of Electrons    NEL             ....   37
 Basis Dimension        Dim             ....   77

ORBITAL ENERGIES
----------------
                 SPIN UP ORBITALS
  NO   OCC          E(Eh)            E(eV)
   0   1.0000    -564.552154    -15362.2451
   1   1.0000     -74.367781     -2023.6502
   2   1.0000     -65.872353     -1792.4779
   3   1.0000     -65.872353     -1792.4779
   4   1.0000     -65.872353     -1792.4779
   5   1.0000     -11.002959      -299.4057
   6   1.0000      -8.292064      -225.6385
   7   1.0000      -8.292064      -225.6385
   8   1.0000      -8.292064      -225.6385
   9   1.0000      -3.820688      -103.9662
  10   1.0000      -3.820688      -103.9662
  11   1.0000      -3.820688      -103.9662
  12   1.0000      -3.820688      -103.9662
  13   1.0000      -3.820688      -103.9662
  14   1.0000      -1.171299       -31.8727
  15   1.0000      -0.583388       -15.8748
  16   1.0000      -0.583388       -15.8748
  17   1.0000      -0.583388       -15.8748
  18   1.0000      -0.087339        -2.3766
  19   0.0000      -0.026447        -0.7197
  20   0.0000      -0.026447        -0.7197
  21   0.0000      -0.026447        -0.7197
  22   0.0000       0.031001         0.8436
  23   0.0000       0.031001         0.8436

                 SPIN DOWN ORBITALS
  NO   OCC          E(Eh)            E(eV)
   0   1.0000    -564.551933    -15362.2391
   1   1.0000     -74.367621     -2023.6459
   2   1.0000     -65.872210     -1792.4740
   3   1.0000     -65.872210     -1792.4740
   4   1.0000     -65.872210     -1792.4740
   5   1.0000     -11.002657      -299.3975
   6   1.0000      -8.291739      -225.6297
   7   1.0000      -8.291739      -225.6297
   8   1.0000      -8.291739      -225.6297
   9   1.0000      -3.820320      -103.9562
  10   1.0000      -3.820320      -103.9562
  11   1.0000      -3.820320      -103.9562
  12   1.0000      -3.820320      -103.9562
  13   1.0000      -3.820320      -103.9562
  14   1.0000      -1.169494       -31.8236
  15   1.0000      -0.580060       -15.7842
  16   1.0000      -0.580060       -15.7842
  17   1.0000      -0.580060       -15.7842
  18   0.0000      -0.055930        -1.5219
  19   0.0000       0.014782         0.4022
  20   0.0000       0.014782         0.4022
  21   0.0000       0.014782         0.4022
  22   0.0000       0.052281         1.4226

MULLIKEN ATOMIC CHARGES AND SPIN POPULATIONS
--------------------------------------------
   0 Rb:    0.000000    1.000000
Sum of atomic charges         :    0.0000000

LOEWDIN ATOMIC CHARGES AND SPIN POPULATIONS
-------------------------------------------
   0 Rb:    0.000000    1.000000

FINAL SINGLE POINT ENERGY     -3013.511230628472

DIPOLE MOMENT
-------------
                                X             Y             Z
Electronic contribution:      0.00000      -0.00000      -0.00000
Nuclear contribution   :      0.00000       0.00000       0.00000
                        -----------------------------------------
Total Dipole Moment    :      0.00000      -0.00000      -0.00000
                        -----------------------------------------
Magnitude (a.u.)       :      0.00000
Magnitude (Debye)      :      0.00000

Rotational constants in cm-1:     0.000000     0.000000     0.000000
Rotational constants in MHz :     0.000000     0.000000     0.000000

                             ****ORCA TERMINATED NORMALLY****
TOTAL RUN TIME: 0 days 0 hours 3 minutes 41 seconds 569 msec
