                         Program Version 5.0.1 -  RELEASE  -
|  1> !uks pbe nori verytightscf soscf notrah
|  2>
|  3> %pal
|  4>   nprocs 32
|  5> end
|  6> %coords
|  7>   charge 0
|  8>   mult 4
|  9>   units bohrs
| 10>   coords
| 11>     Rh 0.0 0.0 0.0
| 12>   end
| 13> end
| 14> %basis
| 15>   gtoname "Rh_ano-r3.basis"
| 16>   delECP Rh
| 17> end
| 18> %rel
| 19>   method zora
| 20>   modelpot 1, 0, 0, 0
| 21>   c 137.035999084
| 22> endd                         ****END OF INPUT****

CARTESIAN COORDINATES (ANGSTROEM)
---------------------------------
  Rh     0.000000    0.000000    0.000000

 Total Charge           Charge          ....    0
 Multiplicity           Mult            ....    4
 Number of Electrons    NEL             ....   45
 Basis Dimension        Dim             ....  108

ORBITAL ENERGIES
----------------
                 SPIN UP ORBITALS
  NO   OCC          E(Eh)            E(eV)
   0   1.0000    -870.673544    -23692.2316
   1   1.0000    -123.690872     -3365.7997
   2   1.0000    -111.165721     -3024.9731
   3   1.0000    -111.165720     -3024.9730
   4   1.0000    -111.165719     -3024.9730
   5   1.0000     -22.000845      -598.6734
   6   1.0000     -17.847630      -485.6587
   7   1.0000     -17.847629      -485.6587
   8   1.0000     -17.847628      -485.6586
   9   1.0000     -11.095424      -301.9218
  10   1.0000     -11.095424      -301.9218
  11   1.0000     -11.085399      -301.6490
  12   1.0000     -11.085399      -301.6490
  13   1.0000     -11.085399      -301.6490
  14   1.0000      -3.047832       -82.9357
  15   1.0000      -1.875914       -51.0462
  16   1.0000      -1.875905       -51.0460
  17   1.0000      -1.875901       -51.0459
  18   1.0000      -0.251876        -6.8539
  19   1.0000      -0.251876        -6.8539
  20   1.0000      -0.221442        -6.0258
  21   1.0000      -0.221437        -6.0256
  22   1.0000      -0.221435        -6.0255
  23   1.0000      -0.171610        -4.6698
  24   0.0000       0.043840         1.1929
  25   0.0000       0.043847         1.1931
  26   0.0000       0.043851         1.1932
  27   0.0000       0.081752         2.2246
  28   0.0000       0.300823         8.1858

                 SPIN DOWN ORBITALS
  NO   OCC          E(Eh)            E(eV)
   0   1.0000    -870.673021    -23692.2174
   1   1.0000    -123.680643     -3365.5214
   2   1.0000    -111.157943     -3024.7614
   3   1.0000    -111.157942     -3024.7614
   4   1.0000    -111.157942     -3024.7614
   5   1.0000     -21.994943      -598.5128
   6   1.0000     -17.840988      -485.4780
   7   1.0000     -17.840986      -485.4779
   8   1.0000     -17.840985      -485.4779
   9   1.0000     -11.080071      -301.5041
  10   1.0000     -11.080070      -301.5040
  11   1.0000     -11.080069      -301.5040
  12   1.0000     -11.078750      -301.4681
  13   1.0000     -11.078750      -301.4681
  14   1.0000      -2.996785       -81.5467
  15   1.0000      -1.821316       -49.5605
  16   1.0000      -1.821311       -49.5604
  17   1.0000      -1.821309       -49.5603
  18   1.0000      -0.186620        -5.0782
  19   1.0000      -0.186617        -5.0781
  20   1.0000      -0.186615        -5.0781
  21   0.0000      -0.155691        -4.2366
  22   0.0000      -0.155670        -4.2360
  23   0.0000      -0.126541        -3.4434
  24   0.0000       0.089164         2.4263
  25   0.0000       0.089196         2.4272

MULLIKEN ATOMIC CHARGES AND SPIN POPULATIONS
--------------------------------------------
   0 Rh:   -0.000000    3.000000
Sum of atomic charges         :   -0.0000000

LOEWDIN ATOMIC CHARGES AND SPIN POPULATIONS
-------------------------------------------
   0 Rh:   -0.000000    3.000000

FINAL SINGLE POINT ENERGY     -4849.607775919369

DIPOLE MOMENT
-------------
                                X             Y             Z
Electronic contribution:      0.00000      -0.00000       0.00000
Nuclear contribution   :      0.00000       0.00000       0.00000
                        -----------------------------------------
Total Dipole Moment    :      0.00000      -0.00000       0.00000
                        -----------------------------------------
Magnitude (a.u.)       :      0.00000
Magnitude (Debye)      :      0.00000

Rotational constants in cm-1:     0.000000     0.000000     0.000000
Rotational constants in MHz :     0.000000     0.000000     0.000000

                             ****ORCA TERMINATED NORMALLY****
TOTAL RUN TIME: 0 days 1 hours 5 minutes 52 seconds 886 msec
