                         Program Version 5.0.1 -  RELEASE  -
|  1> !uks pbe nori verytightscf soscf notrah
|  2>
|  3> %pal
|  4>   nprocs 32
|  5> end
|  6> %coords
|  7>   charge 0
|  8>   mult 4
|  9>   units bohrs
| 10>   coords
| 11>     Rh 0.0 0.0 0.0
| 12>   end
| 13> end
| 14> %basis
| 15>   gtoname "Rh_sarc-zora-tzvpp.basis"
| 16>   delECP Rh
| 17> end
| 18> %rel
| 19>   method zora
| 20>   modelpot 1, 0, 0, 0
| 21>   c 137.035999084
| 22> endd                         ****END OF INPUT****

CARTESIAN COORDINATES (ANGSTROEM)
---------------------------------
  Rh     0.000000    0.000000    0.000000

 Total Charge           Charge          ....    0
 Multiplicity           Mult            ....    4
 Number of Electrons    NEL             ....   45
 Basis Dimension        Dim             ....   98

ORBITAL ENERGIES
----------------
                 SPIN UP ORBITALS
  NO   OCC          E(Eh)            E(eV)
   0   1.0000    -874.189265    -23787.8993
   1   1.0000    -124.078091     -3376.3365
   2   1.0000    -111.080953     -3022.6664
   3   1.0000    -111.080952     -3022.6664
   4   1.0000    -111.080950     -3022.6663
   5   1.0000     -22.092027      -601.1546
   6   1.0000     -17.850848      -485.7463
   7   1.0000     -17.850848      -485.7463
   8   1.0000     -17.850845      -485.7462
   9   1.0000     -11.096744      -301.9578
  10   1.0000     -11.096744      -301.9578
  11   1.0000     -11.086774      -301.6865
  12   1.0000     -11.086774      -301.6865
  13   1.0000     -11.086773      -301.6864
  14   1.0000      -3.072201       -83.5988
  15   1.0000      -1.883437       -51.2509
  16   1.0000      -1.883434       -51.2508
  17   1.0000      -1.883422       -51.2505
  18   1.0000      -0.255454        -6.9513
  19   1.0000      -0.255454        -6.9513
  20   1.0000      -0.225772        -6.1436
  21   1.0000      -0.225769        -6.1435
  22   1.0000      -0.225763        -6.1433
  23   1.0000      -0.175309        -4.7704
  24   0.0000      -0.035960        -0.9785
  25   0.0000      -0.035959        -0.9785
  26   0.0000      -0.035954        -0.9783
  27   0.0000       0.095445         2.5972
  28   0.0000       0.096306         2.6206

                 SPIN DOWN ORBITALS
  NO   OCC          E(Eh)            E(eV)
   0   1.0000    -874.188768    -23787.8857
   1   1.0000    -124.068164     -3376.0664
   2   1.0000    -111.073417     -3022.4613
   3   1.0000    -111.073417     -3022.4613
   4   1.0000    -111.073416     -3022.4613
   5   1.0000     -22.086041      -600.9917
   6   1.0000     -17.844052      -485.5613
   7   1.0000     -17.844051      -485.5613
   8   1.0000     -17.844048      -485.5612
   9   1.0000     -11.081413      -301.5406
  10   1.0000     -11.081412      -301.5406
  11   1.0000     -11.081411      -301.5405
  12   1.0000     -11.080185      -301.5072
  13   1.0000     -11.080184      -301.5071
  14   1.0000      -3.021479       -82.2186
  15   1.0000      -1.828974       -49.7689
  16   1.0000      -1.828970       -49.7688
  17   1.0000      -1.828965       -49.7687
  18   1.0000      -0.190407        -5.1812
  19   1.0000      -0.190405        -5.1812
  20   1.0000      -0.190399        -5.1810
  21   0.0000      -0.160348        -4.3633
  22   0.0000      -0.160293        -4.3618
  23   0.0000      -0.130601        -3.5538
  24   0.0000      -0.002014        -0.0548
  25   0.0000      -0.001774        -0.0483

MULLIKEN ATOMIC CHARGES AND SPIN POPULATIONS
--------------------------------------------
   0 Rh:   -0.000000    3.000000
Sum of atomic charges         :   -0.0000000

LOEWDIN ATOMIC CHARGES AND SPIN POPULATIONS
-------------------------------------------
   0 Rh:    0.000000    3.000000

FINAL SINGLE POINT ENERGY     -4858.095178272729

DIPOLE MOMENT
-------------
                                X             Y             Z
Electronic contribution:      0.00000      -0.00000       0.00000
Nuclear contribution   :      0.00000       0.00000       0.00000
                        -----------------------------------------
Total Dipole Moment    :      0.00000      -0.00000       0.00000
                        -----------------------------------------
Magnitude (a.u.)       :      0.00000
Magnitude (Debye)      :      0.00000

Rotational constants in cm-1:     0.000000     0.000000     0.000000
Rotational constants in MHz :     0.000000     0.000000     0.000000

                             ****ORCA TERMINATED NORMALLY****
TOTAL RUN TIME: 0 days 0 hours 8 minutes 24 seconds 858 msec
