                         Program Version 5.0.1 -  RELEASE  -
|  1> !uks pbe nori verytightscf soscf notrah
|  2>
|  3> %pal
|  4>   nprocs 32
|  5> end
|  6> %coords
|  7>   charge 0
|  8>   mult 4
|  9>   units bohrs
| 10>   coords
| 11>     Rh 0.0 0.0 0.0
| 12>   end
| 13> end
| 14> %basis
| 15>   gtoname "Rh_sapporo-qzp-2012-diffuse.basis"
| 16>   delECP Rh
| 17> end
| 18> %rel
| 19>   method zora
| 20>   modelpot 1, 0, 0, 0
| 21>   c 137.035999084
| 22> endd                         ****END OF INPUT****

CARTESIAN COORDINATES (ANGSTROEM)
---------------------------------
  Rh     0.000000    0.000000    0.000000

 Total Charge           Charge          ....    0
 Multiplicity           Mult            ....    4
 Number of Electrons    NEL             ....   45
 Basis Dimension        Dim             ....  150

ORBITAL ENERGIES
----------------
                 SPIN UP ORBITALS
  NO   OCC          E(Eh)            E(eV)
   0   1.0000    -869.601309    -23663.0546
   1   1.0000    -123.216736     -3352.8978
   2   1.0000    -111.448601     -3032.6706
   3   1.0000    -111.448599     -3032.6706
   4   1.0000    -111.448599     -3032.6706
   5   1.0000     -21.848390      -594.5249
   6   1.0000     -17.856236      -485.8929
   7   1.0000     -17.856234      -485.8928
   8   1.0000     -17.856234      -485.8928
   9   1.0000     -11.100189      -302.0515
  10   1.0000     -11.100189      -302.0515
  11   1.0000     -11.090113      -301.7773
  12   1.0000     -11.090113      -301.7773
  13   1.0000     -11.090113      -301.7773
  14   1.0000      -3.031931       -82.5030
  15   1.0000      -1.884229       -51.2725
  16   1.0000      -1.884221       -51.2723
  17   1.0000      -1.884220       -51.2722
  18   1.0000      -0.258732        -7.0405
  19   1.0000      -0.258732        -7.0405
  20   1.0000      -0.228426        -6.2158
  21   1.0000      -0.228421        -6.2157
  22   1.0000      -0.228421        -6.2157
  23   1.0000      -0.173000        -4.7076
  24   0.0000      -0.038803        -1.0559
  25   0.0000      -0.038800        -1.0558
  26   0.0000      -0.038800        -1.0558
  27   0.0000       0.002713         0.0738
  28   0.0000       0.046736         1.2717

                 SPIN DOWN ORBITALS
  NO   OCC          E(Eh)            E(eV)
   0   1.0000    -869.600904    -23663.0436
   1   1.0000    -123.206274     -3352.6132
   2   1.0000    -111.440918     -3032.4615
   3   1.0000    -111.440917     -3032.4615
   4   1.0000    -111.440917     -3032.4615
   5   1.0000     -21.842451      -594.3633
   6   1.0000     -17.849378      -485.7063
   7   1.0000     -17.849376      -485.7062
   8   1.0000     -17.849376      -485.7062
   9   1.0000     -11.084695      -301.6299
  10   1.0000     -11.084694      -301.6299
  11   1.0000     -11.084693      -301.6298
  12   1.0000     -11.083372      -301.5939
  13   1.0000     -11.083372      -301.5939
  14   1.0000      -2.980781       -81.1112
  15   1.0000      -1.829524       -49.7839
  16   1.0000      -1.829521       -49.7838
  17   1.0000      -1.829520       -49.7838
  18   1.0000      -0.193719        -5.2714
  19   1.0000      -0.193716        -5.2713
  20   1.0000      -0.193715        -5.2713
  21   0.0000      -0.163080        -4.4376
  22   0.0000      -0.163017        -4.4359
  23   0.0000      -0.128939        -3.5086
  24   0.0000      -0.005339        -0.1453
  25   0.0000      -0.005124        -0.1394

MULLIKEN ATOMIC CHARGES AND SPIN POPULATIONS
--------------------------------------------
   0 Rh:   -0.000000    3.000000
Sum of atomic charges         :   -0.0000000

LOEWDIN ATOMIC CHARGES AND SPIN POPULATIONS
-------------------------------------------
   0 Rh:   -0.000000    3.000000

FINAL SINGLE POINT ENERGY     -4837.936514471219

DIPOLE MOMENT
-------------
                                X             Y             Z
Electronic contribution:      0.00000       0.00000       0.00000
Nuclear contribution   :      0.00000       0.00000       0.00000
                        -----------------------------------------
Total Dipole Moment    :      0.00000       0.00000       0.00000
                        -----------------------------------------
Magnitude (a.u.)       :      0.00000
Magnitude (Debye)      :      0.00000

Rotational constants in cm-1:     0.000000     0.000000     0.000000
Rotational constants in MHz :     0.000000     0.000000     0.000000

                             ****ORCA TERMINATED NORMALLY****
TOTAL RUN TIME: 0 days 0 hours 8 minutes 47 seconds 546 msec
