                         Program Version 5.0.1 -  RELEASE  -
|  1> !uks pbe nori verytightscf soscf notrah
|  2>
|  3> %pal
|  4>   nprocs 32
|  5> end
|  6> %coords
|  7>   charge 0
|  8>   mult 4
|  9>   units bohrs
| 10>   coords
| 11>     Rh 0.0 0.0 0.0
| 12>   end
| 13> end
| 14> %basis
| 15>   gtoname "Rh_ugbs.basis"
| 16>   delECP Rh
| 17> end
| 18> %rel
| 19>   method zora
| 20>   modelpot 1, 0, 0, 0
| 21>   c 137.035999084
| 22> endd                         ****END OF INPUT****

CARTESIAN COORDINATES (ANGSTROEM)
---------------------------------
  Rh     0.000000    0.000000    0.000000

 Total Charge           Charge          ....    0
 Multiplicity           Mult            ....    4
 Number of Electrons    NEL             ....   45
 Basis Dimension        Dim             ....  180

ORBITAL ENERGIES
----------------
                 SPIN UP ORBITALS
  NO   OCC          E(Eh)            E(eV)
   0   1.0000    -874.137601    -23786.4934
   1   1.0000    -123.998570     -3374.1726
   2   1.0000    -110.991822     -3020.2410
   3   1.0000    -110.991821     -3020.2410
   4   1.0000    -110.991821     -3020.2410
   5   1.0000     -22.070211      -600.5610
   6   1.0000     -17.830724      -485.1987
   7   1.0000     -17.830723      -485.1986
   8   1.0000     -17.830722      -485.1986
   9   1.0000     -11.077121      -301.4238
  10   1.0000     -11.077121      -301.4238
  11   1.0000     -11.067085      -301.1507
  12   1.0000     -11.067085      -301.1507
  13   1.0000     -11.067085      -301.1507
  14   1.0000      -3.068164       -83.4890
  15   1.0000      -1.880520       -51.1715
  16   1.0000      -1.880511       -51.1713
  17   1.0000      -1.880507       -51.1712
  18   1.0000      -0.255475        -6.9518
  19   1.0000      -0.255475        -6.9518
  20   1.0000      -0.226952        -6.1757
  21   1.0000      -0.226946        -6.1755
  22   1.0000      -0.226943        -6.1754
  23   1.0000      -0.175529        -4.7764
  24   0.0000       0.007839         0.2133
  25   0.0000       0.024492         0.6665
  26   0.0000       0.024499         0.6667
  27   0.0000       0.024502         0.6667
  28   0.0000       0.121232         3.2989

                 SPIN DOWN ORBITALS
  NO   OCC          E(Eh)            E(eV)
   0   1.0000    -874.137093    -23786.4796
   1   1.0000    -123.987923     -3373.8829
   2   1.0000    -110.983724     -3020.0207
   3   1.0000    -110.983723     -3020.0206
   4   1.0000    -110.983723     -3020.0206
   5   1.0000     -22.064348      -600.4014
   6   1.0000     -17.824083      -485.0179
   7   1.0000     -17.824081      -485.0179
   8   1.0000     -17.824080      -485.0179
   9   1.0000     -11.061530      -300.9995
  10   1.0000     -11.061528      -300.9995
  11   1.0000     -11.061528      -300.9995
  12   1.0000     -11.060321      -300.9666
  13   1.0000     -11.060320      -300.9666
  14   1.0000      -3.017481       -82.1098
  15   1.0000      -1.826126       -49.6914
  16   1.0000      -1.826121       -49.6913
  17   1.0000      -1.826118       -49.6912
  18   1.0000      -0.190641        -5.1876
  19   1.0000      -0.190638        -5.1875
  20   1.0000      -0.190636        -5.1875
  21   0.0000      -0.162257        -4.4152
  22   0.0000      -0.162239        -4.4147
  23   0.0000      -0.130998        -3.5646
  24   0.0000       0.029083         0.7914
  25   0.0000       0.066607         1.8125

MULLIKEN ATOMIC CHARGES AND SPIN POPULATIONS
--------------------------------------------
   0 Rh:    0.000000    3.000000
Sum of atomic charges         :    0.0000000

LOEWDIN ATOMIC CHARGES AND SPIN POPULATIONS
-------------------------------------------
   0 Rh:    0.000000    3.000000

FINAL SINGLE POINT ENERGY     -4858.397363275249

DIPOLE MOMENT
-------------
                                X             Y             Z
Electronic contribution:     -0.00000       0.00000      -0.00000
Nuclear contribution   :      0.00000       0.00000       0.00000
                        -----------------------------------------
Total Dipole Moment    :     -0.00000       0.00000      -0.00000
                        -----------------------------------------
Magnitude (a.u.)       :      0.00000
Magnitude (Debye)      :      0.00000

Rotational constants in cm-1:     0.000000     0.000000     0.000000
Rotational constants in MHz :     0.000000     0.000000     0.000000

                             ****ORCA TERMINATED NORMALLY****
TOTAL RUN TIME: 0 days 0 hours 14 minutes 35 seconds 784 msec
