                         Program Version 5.0.1 -  RELEASE  -
|  1> !uks pbe nori verytightscf soscf notrah
|  2>
|  3> %pal
|  4>   nprocs 32
|  5> end
|  6> %coords
|  7>   charge 0
|  8>   mult 5
|  9>   units bohrs
| 10>   coords
| 11>     Ru 0.0 0.0 0.0
| 12>   end
| 13> end
| 14> %basis
| 15>   gtoname "Ru_ano-r3.basis"
| 16>   delECP Ru
| 17> end
| 18> %rel
| 19>   method zora
| 20>   modelpot 1, 0, 0, 0
| 21>   c 137.035999084
| 22> endd                         ****END OF INPUT****

CARTESIAN COORDINATES (ANGSTROEM)
---------------------------------
  Ru     0.000000    0.000000    0.000000

 Total Charge           Charge          ....    0
 Multiplicity           Mult            ....    5
 Number of Electrons    NEL             ....   44
 Basis Dimension        Dim             ....  101

ORBITAL ENERGIES
----------------
                 SPIN UP ORBITALS
  NO   OCC          E(Eh)            E(eV)
   0   1.0000    -828.036032    -22532.0059
   1   1.0000    -116.780442     -3177.7574
   2   1.0000    -104.873218     -2853.7453
   3   1.0000    -104.873216     -2853.7453
   4   1.0000    -104.873214     -2853.7452
   5   1.0000     -20.471147      -557.0482
   6   1.0000     -16.525481      -449.6812
   7   1.0000     -16.525478      -449.6811
   8   1.0000     -16.525473      -449.6810
   9   1.0000     -10.076309      -274.1903
  10   1.0000     -10.076306      -274.1902
  11   1.0000     -10.076304      -274.1902
  12   1.0000     -10.067336      -273.9461
  13   1.0000     -10.067335      -273.9461
  14   1.0000      -2.828701       -76.9729
  15   1.0000      -1.734602       -47.2009
  16   1.0000      -1.734591       -47.2006
  17   1.0000      -1.734582       -47.2004
  18   1.0000      -0.225235        -6.1290
  19   1.0000      -0.225233        -6.1289
  20   1.0000      -0.225228        -6.1288
  21   1.0000      -0.196983        -5.3602
  22   1.0000      -0.196980        -5.3601
  23   1.0000      -0.171774        -4.6742
  24   0.0000       0.025864         0.7038
  25   0.0000       0.025870         0.7040
  26   0.0000       0.025872         0.7040
  27   0.0000       0.125186         3.4065
  28   0.0000       0.252198         6.8627

                 SPIN DOWN ORBITALS
  NO   OCC          E(Eh)            E(eV)
   0   1.0000    -828.035643    -22531.9954
   1   1.0000    -116.766836     -3177.3871
   2   1.0000    -104.862957     -2853.4661
   3   1.0000    -104.862956     -2853.4661
   4   1.0000    -104.862955     -2853.4661
   5   1.0000     -20.463392      -556.8372
   6   1.0000     -16.516755      -449.4437
   7   1.0000     -16.516752      -449.4437
   8   1.0000     -16.516748      -449.4436
   9   1.0000     -10.060316      -273.7551
  10   1.0000     -10.060316      -273.7551
  11   1.0000     -10.059162      -273.7237
  12   1.0000     -10.059160      -273.7236
  13   1.0000     -10.059158      -273.7236
  14   1.0000      -2.757184       -75.0268
  15   1.0000      -1.657322       -45.0980
  16   1.0000      -1.657318       -45.0979
  17   1.0000      -1.657316       -45.0979
  18   1.0000      -0.150083        -4.0840
  19   1.0000      -0.150081        -4.0839
  20   0.0000      -0.119071        -3.2401
  21   0.0000      -0.119056        -3.2397
  22   0.0000      -0.119029        -3.2389
  23   0.0000      -0.116430        -3.1682
  24   0.0000       0.080127         2.1804

MULLIKEN ATOMIC CHARGES AND SPIN POPULATIONS
--------------------------------------------
   0 Ru:   -0.000000    4.000000
Sum of atomic charges         :   -0.0000000

LOEWDIN ATOMIC CHARGES AND SPIN POPULATIONS
-------------------------------------------
   0 Ru:   -0.000000    4.000000

FINAL SINGLE POINT ENERGY     -4590.331746208949

DIPOLE MOMENT
-------------
                                X             Y             Z
Electronic contribution:     -0.00000       0.00000      -0.00000
Nuclear contribution   :      0.00000       0.00000       0.00000
                        -----------------------------------------
Total Dipole Moment    :     -0.00000       0.00000      -0.00000
                        -----------------------------------------
Magnitude (a.u.)       :      0.00000
Magnitude (Debye)      :      0.00000

Rotational constants in cm-1:     0.000000     0.000000     0.000000
Rotational constants in MHz :     0.000000     0.000000     0.000000

                             ****ORCA TERMINATED NORMALLY****
TOTAL RUN TIME: 0 days 1 hours 0 minutes 24 seconds 179 msec
