                         Program Version 5.0.1 -  RELEASE  -
|  1> !uks pbe nori verytightscf soscf notrah
|  2>
|  3> %pal
|  4>   nprocs 32
|  5> end
|  6> %coords
|  7>   charge 0
|  8>   mult 5
|  9>   units bohrs
| 10>   coords
| 11>     Ru 0.0 0.0 0.0
| 12>   end
| 13> end
| 14> %basis
| 15>   gtoname "Ru_sarc-zora-tzvpp.basis"
| 16>   delECP Ru
| 17> end
| 18> %rel
| 19>   method zora
| 20>   modelpot 1, 0, 0, 0
| 21>   c 137.035999084
| 22> endd                         ****END OF INPUT****

CARTESIAN COORDINATES (ANGSTROEM)
---------------------------------
  Ru     0.000000    0.000000    0.000000

 Total Charge           Charge          ....    0
 Multiplicity           Mult            ....    5
 Number of Electrons    NEL             ....   44
 Basis Dimension        Dim             ....   98

ORBITAL ENERGIES
----------------
                 SPIN UP ORBITALS
  NO   OCC          E(Eh)            E(eV)
   0   1.0000    -831.211182    -22618.4062
   1   1.0000    -117.117156     -3186.9198
   2   1.0000    -104.782582     -2851.2790
   3   1.0000    -104.782581     -2851.2790
   4   1.0000    -104.782578     -2851.2789
   5   1.0000     -20.549100      -559.1694
   6   1.0000     -16.524861      -449.6643
   7   1.0000     -16.524857      -449.6642
   8   1.0000     -16.524852      -449.6641
   9   1.0000     -10.073809      -274.1223
  10   1.0000     -10.073808      -274.1223
  11   1.0000     -10.073805      -274.1222
  12   1.0000     -10.064874      -273.8792
  13   1.0000     -10.064872      -273.8791
  14   1.0000      -2.849299       -77.5334
  15   1.0000      -1.740729       -47.3676
  16   1.0000      -1.740725       -47.3675
  17   1.0000      -1.740710       -47.3671
  18   1.0000      -0.228267        -6.2115
  19   1.0000      -0.228262        -6.2113
  20   1.0000      -0.228258        -6.2112
  21   1.0000      -0.200854        -5.4655
  22   1.0000      -0.200847        -5.4653
  23   1.0000      -0.175113        -4.7651
  24   0.0000      -0.039687        -1.0799
  25   0.0000      -0.039684        -1.0799
  26   0.0000      -0.039680        -1.0797
  27   0.0000       0.087402         2.3783
  28   0.0000       0.087838         2.3902

                 SPIN DOWN ORBITALS
  NO   OCC          E(Eh)            E(eV)
   0   1.0000    -831.210822    -22618.3964
   1   1.0000    -117.103887     -3186.5588
   2   1.0000    -104.772596     -2851.0073
   3   1.0000    -104.772595     -2851.0072
   4   1.0000    -104.772593     -2851.0072
   5   1.0000     -20.541211      -558.9548
   6   1.0000     -16.515918      -449.4210
   7   1.0000     -16.515916      -449.4209
   8   1.0000     -16.515911      -449.4208
   9   1.0000     -10.057778      -273.6860
  10   1.0000     -10.057776      -273.6860
  11   1.0000     -10.056679      -273.6561
  12   1.0000     -10.056678      -273.6561
  13   1.0000     -10.056674      -273.6560
  14   1.0000      -2.778270       -75.6006
  15   1.0000      -1.663657       -45.2704
  16   1.0000      -1.663657       -45.2704
  17   1.0000      -1.663651       -45.2702
  18   1.0000      -0.153117        -4.1665
  19   1.0000      -0.153114        -4.1665
  20   0.0000      -0.123160        -3.3514
  21   0.0000      -0.123141        -3.3508
  22   0.0000      -0.123108        -3.3499
  23   0.0000      -0.120184        -3.2704
  24   0.0000      -0.000607        -0.0165

MULLIKEN ATOMIC CHARGES AND SPIN POPULATIONS
--------------------------------------------
   0 Ru:   -0.000000    4.000000
Sum of atomic charges         :   -0.0000000

LOEWDIN ATOMIC CHARGES AND SPIN POPULATIONS
-------------------------------------------
   0 Ru:   -0.000000    4.000000

FINAL SINGLE POINT ENERGY     -4598.037923391896

DIPOLE MOMENT
-------------
                                X             Y             Z
Electronic contribution:     -0.00000      -0.00000      -0.00000
Nuclear contribution   :      0.00000       0.00000       0.00000
                        -----------------------------------------
Total Dipole Moment    :     -0.00000      -0.00000      -0.00000
                        -----------------------------------------
Magnitude (a.u.)       :      0.00000
Magnitude (Debye)      :      0.00000

Rotational constants in cm-1:     0.000000     0.000000     0.000000
Rotational constants in MHz :     0.000000     0.000000     0.000000

                             ****ORCA TERMINATED NORMALLY****
TOTAL RUN TIME: 0 days 0 hours 11 minutes 42 seconds 59 msec
