                         Program Version 5.0.1 -  RELEASE  -
|  1> !uks pbe nori verytightscf soscf notrah
|  2>
|  3> %pal
|  4>   nprocs 32
|  5> end
|  6> %coords
|  7>   charge 0
|  8>   mult 5
|  9>   units bohrs
| 10>   coords
| 11>     Ru 0.0 0.0 0.0
| 12>   end
| 13> end
| 14> %basis
| 15>   gtoname "Ru_sapporo-qzp-2012-diffuse.basis"
| 16>   delECP Ru
| 17> end
| 18> %rel
| 19>   method zora
| 20>   modelpot 1, 0, 0, 0
| 21>   c 137.035999084
| 22> endd                         ****END OF INPUT****

CARTESIAN COORDINATES (ANGSTROEM)
---------------------------------
  Ru     0.000000    0.000000    0.000000

 Total Charge           Charge          ....    0
 Multiplicity           Mult            ....    5
 Number of Electrons    NEL             ....   44
 Basis Dimension        Dim             ....  150

ORBITAL ENERGIES
----------------
                 SPIN UP ORBITALS
  NO   OCC          E(Eh)            E(eV)
   0   1.0000    -827.357768    -22513.5494
   1   1.0000    -116.388574     -3167.0941
   2   1.0000    -105.133272     -2860.8218
   3   1.0000    -105.133272     -2860.8218
   4   1.0000    -105.133270     -2860.8217
   5   1.0000     -20.339233      -553.4587
   6   1.0000     -16.532452      -449.8709
   7   1.0000     -16.532451      -449.8709
   8   1.0000     -16.532447      -449.8707
   9   1.0000     -10.077155      -274.2133
  10   1.0000     -10.077153      -274.2133
  11   1.0000     -10.077152      -274.2132
  12   1.0000     -10.068136      -273.9679
  13   1.0000     -10.068134      -273.9678
  14   1.0000      -2.815732       -76.6200
  15   1.0000      -1.742200       -47.4077
  16   1.0000      -1.742195       -47.4075
  17   1.0000      -1.742189       -47.4074
  18   1.0000      -0.230999        -6.2858
  19   1.0000      -0.230998        -6.2858
  20   1.0000      -0.230993        -6.2856
  21   1.0000      -0.202912        -5.5215
  22   1.0000      -0.202906        -5.5214
  23   1.0000      -0.172918        -4.7053
  24   0.0000      -0.042469        -1.1556
  25   0.0000      -0.042465        -1.1555
  26   0.0000      -0.042464        -1.1555
  27   0.0000       0.002021         0.0550
  28   0.0000       0.041362         1.1255

                 SPIN DOWN ORBITALS
  NO   OCC          E(Eh)            E(eV)
   0   1.0000    -827.357459    -22513.5410
   1   1.0000    -116.374641     -3166.7150
   2   1.0000    -105.123111     -2860.5453
   3   1.0000    -105.123110     -2860.5453
   4   1.0000    -105.123109     -2860.5452
   5   1.0000     -20.331361      -553.2444
   6   1.0000     -16.523415      -449.6250
   7   1.0000     -16.523414      -449.6250
   8   1.0000     -16.523411      -449.6249
   9   1.0000     -10.060970      -273.7729
  10   1.0000     -10.060969      -273.7729
  11   1.0000     -10.059809      -273.7413
  12   1.0000     -10.059807      -273.7413
  13   1.0000     -10.059806      -273.7412
  14   1.0000      -2.744104       -74.6709
  15   1.0000      -1.664772       -45.3008
  16   1.0000      -1.664769       -45.3007
  17   1.0000      -1.664769       -45.3007
  18   1.0000      -0.156128        -4.2485
  19   1.0000      -0.156125        -4.2484
  20   0.0000      -0.125480        -3.4145
  21   0.0000      -0.125440        -3.4134
  22   0.0000      -0.125407        -3.4125
  23   0.0000      -0.119076        -3.2402
  24   0.0000      -0.004607        -0.1254

MULLIKEN ATOMIC CHARGES AND SPIN POPULATIONS
--------------------------------------------
   0 Ru:    0.000000    4.000000
Sum of atomic charges         :    0.0000000

LOEWDIN ATOMIC CHARGES AND SPIN POPULATIONS
-------------------------------------------
   0 Ru:    0.000000    4.000000

FINAL SINGLE POINT ENERGY     -4580.388382069883

DIPOLE MOMENT
-------------
                                X             Y             Z
Electronic contribution:     -0.00000       0.00000       0.00000
Nuclear contribution   :      0.00000       0.00000       0.00000
                        -----------------------------------------
Total Dipole Moment    :     -0.00000       0.00000       0.00000
                        -----------------------------------------
Magnitude (a.u.)       :      0.00000
Magnitude (Debye)      :      0.00000

Rotational constants in cm-1:     0.000000     0.000000     0.000000
Rotational constants in MHz :     0.000000     0.000000     0.000000

                             ****ORCA TERMINATED NORMALLY****
TOTAL RUN TIME: 0 days 0 hours 16 minutes 39 seconds 310 msec
