                         Program Version 5.0.1 -  RELEASE  -
|  1> !uks pbe nori verytightscf soscf notrah
|  2>
|  3> %pal
|  4>   nprocs 32
|  5> end
|  6> %coords
|  7>   charge 0
|  8>   mult 5
|  9>   units bohrs
| 10>   coords
| 11>     Ru 0.0 0.0 0.0
| 12>   end
| 13> end
| 14> %basis
| 15>   gtoname "Ru_ugbs.basis"
| 16>   delECP Ru
| 17> end
| 18> %rel
| 19>   method zora
| 20>   modelpot 1, 0, 0, 0
| 21>   c 137.035999084
| 22> endd                         ****END OF INPUT****

CARTESIAN COORDINATES (ANGSTROEM)
---------------------------------
  Ru     0.000000    0.000000    0.000000

 Total Charge           Charge          ....    0
 Multiplicity           Mult            ....    5
 Number of Electrons    NEL             ....   44
 Basis Dimension        Dim             ....  182

ORBITAL ENERGIES
----------------
                 SPIN UP ORBITALS
  NO   OCC          E(Eh)            E(eV)
   0   1.0000    -831.158024    -22616.9597
   1   1.0000    -117.042832     -3184.8974
   2   1.0000    -104.699883     -2849.0287
   3   1.0000    -104.699880     -2849.0286
   4   1.0000    -104.699877     -2849.0285
   5   1.0000     -20.529553      -558.6375
   6   1.0000     -16.507038      -449.1794
   7   1.0000     -16.507033      -449.1792
   8   1.0000     -16.507026      -449.1790
   9   1.0000     -10.056552      -273.6527
  10   1.0000     -10.056547      -273.6526
  11   1.0000     -10.056545      -273.6525
  12   1.0000     -10.047584      -273.4087
  13   1.0000     -10.047582      -273.4086
  14   1.0000      -2.845717       -77.4359
  15   1.0000      -1.738069       -47.2953
  16   1.0000      -1.738053       -47.2948
  17   1.0000      -1.738042       -47.2945
  18   1.0000      -0.228199        -6.2096
  19   1.0000      -0.228195        -6.2095
  20   1.0000      -0.228187        -6.2093
  21   1.0000      -0.201952        -5.4954
  22   1.0000      -0.201946        -5.4952
  23   1.0000      -0.175126        -4.7654
  24   0.0000       0.007779         0.2117
  25   0.0000       0.023018         0.6263
  26   0.0000       0.023027         0.6266
  27   0.0000       0.023029         0.6266
  28   0.0000       0.121256         3.2995

                 SPIN DOWN ORBITALS
  NO   OCC          E(Eh)            E(eV)
   0   1.0000    -831.157647    -22616.9494
   1   1.0000    -117.028580     -3184.5096
   2   1.0000    -104.689129     -2848.7360
   3   1.0000    -104.689128     -2848.7360
   4   1.0000    -104.689126     -2848.7359
   5   1.0000     -20.521827      -558.4273
   6   1.0000     -16.498290      -448.9413
   7   1.0000     -16.498285      -448.9411
   8   1.0000     -16.498279      -448.9410
   9   1.0000     -10.040215      -273.2082
  10   1.0000     -10.040214      -273.2081
  11   1.0000     -10.039136      -273.1788
  12   1.0000     -10.039132      -273.1787
  13   1.0000     -10.039130      -273.1786
  14   1.0000      -2.774703       -75.5035
  15   1.0000      -1.661050       -45.1995
  16   1.0000      -1.661041       -45.1992
  17   1.0000      -1.661038       -45.1991
  18   1.0000      -0.152670        -4.1544
  19   1.0000      -0.152667        -4.1543
  20   0.0000      -0.124429        -3.3859
  21   0.0000      -0.124424        -3.3857
  22   0.0000      -0.124389        -3.3848
  23   0.0000      -0.120354        -3.2750
  24   0.0000       0.030260         0.8234

MULLIKEN ATOMIC CHARGES AND SPIN POPULATIONS
--------------------------------------------
   0 Ru:    0.000000    4.000000
Sum of atomic charges         :    0.0000000

LOEWDIN ATOMIC CHARGES AND SPIN POPULATIONS
-------------------------------------------
   0 Ru:    0.000000    4.000000

FINAL SINGLE POINT ENERGY     -4598.301056838364

DIPOLE MOMENT
-------------
                                X             Y             Z
Electronic contribution:      0.00000       0.00000       0.00000
Nuclear contribution   :      0.00000       0.00000       0.00000
                        -----------------------------------------
Total Dipole Moment    :      0.00000       0.00000       0.00000
                        -----------------------------------------
Magnitude (a.u.)       :      0.00000
Magnitude (Debye)      :      0.00000

Rotational constants in cm-1:     0.000000     0.000000     0.000000
Rotational constants in MHz :     0.000000     0.000000     0.000000

                             ****ORCA TERMINATED NORMALLY****
TOTAL RUN TIME: 0 days 0 hours 9 minutes 24 seconds 89 msec
