                         Program Version 5.0.1 -  RELEASE  -
|  1> !uks pbe nori verytightscf soscf notrah
|  2>
|  3> %pal
|  4>   nprocs 32
|  5> end
|  6> %coords
|  7>   charge 0
|  8>   mult 4
|  9>   units bohrs
| 10>   coords
| 11>     Sb 0.0 0.0 0.0
| 12>   end
| 13> end
| 14> %basis
| 15>   gtoname "Sb_ano-r3.basis"
| 16>   delECP Sb
| 17> end
| 18> %rel
| 19>   method zora
| 20>   modelpot 1, 0, 0, 0
| 21>   c 137.035999084
| 22> endd                         ****END OF INPUT****

CARTESIAN COORDINATES (ANGSTROEM)
---------------------------------
  Sb     0.000000    0.000000    0.000000

 Total Charge           Charge          ....    0
 Multiplicity           Mult            ....    4
 Number of Electrons    NEL             ....   51
 Basis Dimension        Dim             ....  104

ORBITAL ENERGIES
----------------
                 SPIN UP ORBITALS
  NO   OCC          E(Eh)            E(eV)
   0   1.0000   -1154.216663    -31407.8322
   1   1.0000    -171.039336     -4654.2169
   2   1.0000    -154.156937     -4194.8235
   3   1.0000    -154.156937     -4194.8235
   4   1.0000    -154.156937     -4194.8235
   5   1.0000     -33.346538      -907.4054
   6   1.0000     -27.783802      -756.0357
   7   1.0000     -27.783802      -756.0357
   8   1.0000     -27.783802      -756.0357
   9   1.0000     -19.063379      -518.7409
  10   1.0000     -19.063379      -518.7409
  11   1.0000     -19.063379      -518.7409
  12   1.0000     -19.063379      -518.7409
  13   1.0000     -19.063379      -518.7409
  14   1.0000      -5.465309      -148.7186
  15   1.0000      -3.752153      -102.1013
  16   1.0000      -3.752153      -102.1013
  17   1.0000      -3.752153      -102.1013
  18   1.0000      -1.225121       -33.3372
  19   1.0000      -1.225121       -33.3372
  20   1.0000      -1.225121       -33.3372
  21   1.0000      -1.225121       -33.3372
  22   1.0000      -1.225121       -33.3372
  23   1.0000      -0.492527       -13.4023
  24   1.0000      -0.201069        -5.4714
  25   1.0000      -0.201069        -5.4714
  26   1.0000      -0.201069        -5.4714
  27   0.0000      -0.005601        -0.1524
  28   0.0000       0.131586         3.5806
  29   0.0000       0.131586         3.5806
  30   0.0000       0.131586         3.5806
  31   0.0000       0.174428         4.7464

                 SPIN DOWN ORBITALS
  NO   OCC          E(Eh)            E(eV)
   0   1.0000   -1154.214561    -31407.7749
   1   1.0000    -171.038524     -4654.1948
   2   1.0000    -154.155254     -4194.7777
   3   1.0000    -154.155254     -4194.7777
   4   1.0000    -154.155254     -4194.7777
   5   1.0000     -33.344657      -907.3543
   6   1.0000     -27.781667      -755.9776
   7   1.0000     -27.781667      -755.9776
   8   1.0000     -27.781667      -755.9776
   9   1.0000     -19.061378      -518.6865
  10   1.0000     -19.061378      -518.6865
  11   1.0000     -19.061378      -518.6865
  12   1.0000     -19.061378      -518.6865
  13   1.0000     -19.061378      -518.6865
  14   1.0000      -5.460849      -148.5972
  15   1.0000      -3.747347      -101.9705
  16   1.0000      -3.747347      -101.9705
  17   1.0000      -3.747347      -101.9705
  18   1.0000      -1.214950       -33.0605
  19   1.0000      -1.214950       -33.0605
  20   1.0000      -1.214950       -33.0605
  21   1.0000      -1.214950       -33.0605
  22   1.0000      -1.214950       -33.0605
  23   1.0000      -0.424924       -11.5628
  24   0.0000      -0.129691        -3.5291
  25   0.0000      -0.129691        -3.5291
  26   0.0000      -0.129691        -3.5291
  27   0.0000       0.035358         0.9622
  28   0.0000       0.179439         4.8828

MULLIKEN ATOMIC CHARGES AND SPIN POPULATIONS
--------------------------------------------
   0 Sb:   -0.000000    3.000000
Sum of atomic charges         :   -0.0000000

LOEWDIN ATOMIC CHARGES AND SPIN POPULATIONS
-------------------------------------------
   0 Sb:    0.000000    3.000000

FINAL SINGLE POINT ENERGY     -6592.164266015016

DIPOLE MOMENT
-------------
                                X             Y             Z
Electronic contribution:      0.00000      -0.00000       0.00000
Nuclear contribution   :      0.00000       0.00000       0.00000
                        -----------------------------------------
Total Dipole Moment    :      0.00000      -0.00000       0.00000
                        -----------------------------------------
Magnitude (a.u.)       :      0.00000
Magnitude (Debye)      :      0.00000

Rotational constants in cm-1:     0.000000     0.000000     0.000000
Rotational constants in MHz :     0.000000     0.000000     0.000000

                             ****ORCA TERMINATED NORMALLY****
TOTAL RUN TIME: 0 days 0 hours 19 minutes 29 seconds 18 msec
