                         Program Version 5.0.1 -  RELEASE  -
|  1> !uks pbe nori verytightscf soscf notrah
|  2>
|  3> %pal
|  4>   nprocs 32
|  5> end
|  6> %coords
|  7>   charge 0
|  8>   mult 4
|  9>   units bohrs
| 10>   coords
| 11>     Sb 0.0 0.0 0.0
| 12>   end
| 13> end
| 14> %basis
| 15>   gtoname "Sb_sapporo-qzp-2012-diffuse.basis"
| 16>   delECP Sb
| 17> end
| 18> %rel
| 19>   method zora
| 20>   modelpot 1, 0, 0, 0
| 21>   c 137.035999084
| 22> endd                         ****END OF INPUT****

CARTESIAN COORDINATES (ANGSTROEM)
---------------------------------
  Sb     0.000000    0.000000    0.000000

 Total Charge           Charge          ....    0
 Multiplicity           Mult            ....    4
 Number of Electrons    NEL             ....   51
 Basis Dimension        Dim             ....  181

ORBITAL ENERGIES
----------------
                 SPIN UP ORBITALS
  NO   OCC          E(Eh)            E(eV)
   0   1.0000   -1149.308585    -31274.2766
   1   1.0000    -169.749789     -4619.1266
   2   1.0000    -154.509849     -4204.4267
   3   1.0000    -154.509849     -4204.4267
   4   1.0000    -154.509849     -4204.4267
   5   1.0000     -32.985752      -897.5879
   6   1.0000     -27.770627      -755.6772
   7   1.0000     -27.770627      -755.6772
   8   1.0000     -27.770627      -755.6772
   9   1.0000     -19.070921      -518.9462
  10   1.0000     -19.070921      -518.9462
  11   1.0000     -19.070921      -518.9462
  12   1.0000     -19.070921      -518.9462
  13   1.0000     -19.070921      -518.9462
  14   1.0000      -5.409640      -147.2038
  15   1.0000      -3.757015      -102.2336
  16   1.0000      -3.757015      -102.2336
  17   1.0000      -3.757015      -102.2336
  18   1.0000      -1.234720       -33.5984
  19   1.0000      -1.234720       -33.5984
  20   1.0000      -1.234720       -33.5984
  21   1.0000      -1.234720       -33.5984
  22   1.0000      -1.234720       -33.5984
  23   1.0000      -0.487747       -13.2723
  24   1.0000      -0.202054        -5.4982
  25   1.0000      -0.202054        -5.4982
  26   1.0000      -0.202054        -5.4982
  27   0.0000      -0.022730        -0.6185
  28   0.0000       0.012360         0.3363
  29   0.0000       0.012360         0.3363
  30   0.0000       0.012360         0.3363
  31   0.0000       0.043188         1.1752

                 SPIN DOWN ORBITALS
  NO   OCC          E(Eh)            E(eV)
   0   1.0000   -1149.306569    -31274.2217
   1   1.0000    -169.749079     -4619.1073
   2   1.0000    -154.508261     -4204.3835
   3   1.0000    -154.508261     -4204.3835
   4   1.0000    -154.508261     -4204.3835
   5   1.0000     -32.983913      -897.5379
   6   1.0000     -27.768456      -755.6181
   7   1.0000     -27.768456      -755.6181
   8   1.0000     -27.768456      -755.6181
   9   1.0000     -19.068918      -518.8916
  10   1.0000     -19.068918      -518.8916
  11   1.0000     -19.068918      -518.8916
  12   1.0000     -19.068918      -518.8916
  13   1.0000     -19.068918      -518.8916
  14   1.0000      -5.404979      -147.0770
  15   1.0000      -3.752191      -102.1023
  16   1.0000      -3.752191      -102.1023
  17   1.0000      -3.752191      -102.1023
  18   1.0000      -1.224646       -33.3243
  19   1.0000      -1.224646       -33.3243
  20   1.0000      -1.224646       -33.3243
  21   1.0000      -1.224646       -33.3243
  22   1.0000      -1.224646       -33.3243
  23   1.0000      -0.419262       -11.4087
  24   0.0000      -0.131027        -3.5654
  25   0.0000      -0.131027        -3.5654
  26   0.0000      -0.131027        -3.5654
  27   0.0000       0.005708         0.1553
  28   0.0000       0.037537         1.0214

MULLIKEN ATOMIC CHARGES AND SPIN POPULATIONS
--------------------------------------------
   0 Sb:    0.000000    3.000000
Sum of atomic charges         :    0.0000000

LOEWDIN ATOMIC CHARGES AND SPIN POPULATIONS
-------------------------------------------
   0 Sb:   -0.000000    3.000000

FINAL SINGLE POINT ENERGY     -6565.421187465700

DIPOLE MOMENT
-------------
                                X             Y             Z
Electronic contribution:      0.00000      -0.00000       0.00000
Nuclear contribution   :      0.00000       0.00000       0.00000
                        -----------------------------------------
Total Dipole Moment    :      0.00000      -0.00000       0.00000
                        -----------------------------------------
Magnitude (a.u.)       :      0.00000
Magnitude (Debye)      :      0.00000

Rotational constants in cm-1:     0.000000     0.000000     0.000000
Rotational constants in MHz :     0.000000     0.000000     0.000000

                             ****ORCA TERMINATED NORMALLY****
TOTAL RUN TIME: 0 days 0 hours 6 minutes 49 seconds 596 msec
