                         Program Version 5.0.1 -  RELEASE  -
|  1> !uks pbe nori verytightscf soscf notrah
|  2>
|  3> %pal
|  4>   nprocs 32
|  5> end
|  6> %coords
|  7>   charge 0
|  8>   mult 4
|  9>   units bohrs
| 10>   coords
| 11>     Sb 0.0 0.0 0.0
| 12>   end
| 13> end
| 14> %basis
| 15>   gtoname "Sb_ugbs.basis"
| 16>   delECP Sb
| 17> end
| 18> %rel
| 19>   method zora
| 20>   modelpot 1, 0, 0, 0
| 21>   c 137.035999084
| 22> endd                         ****END OF INPUT****

CARTESIAN COORDINATES (ANGSTROEM)
---------------------------------
  Sb     0.000000    0.000000    0.000000

 Total Charge           Charge          ....    0
 Multiplicity           Mult            ....    4
 Number of Electrons    NEL             ....   51
 Basis Dimension        Dim             ....  176

ORBITAL ENERGIES
----------------
                 SPIN UP ORBITALS
  NO   OCC          E(Eh)            E(eV)
   0   1.0000   -1160.593267    -31581.3484
   1   1.0000    -171.664340     -4671.2242
   2   1.0000    -153.887833     -4187.5008
   3   1.0000    -153.887833     -4187.5008
   4   1.0000    -153.887833     -4187.5008
   5   1.0000     -33.473884      -910.8707
   6   1.0000     -27.738906      -754.8140
   7   1.0000     -27.738906      -754.8140
   8   1.0000     -27.738906      -754.8140
   9   1.0000     -19.013202      -517.3755
  10   1.0000     -19.013202      -517.3755
  11   1.0000     -19.013202      -517.3755
  12   1.0000     -19.013202      -517.3755
  13   1.0000     -19.013202      -517.3755
  14   1.0000      -5.497579      -149.5967
  15   1.0000      -3.749648      -102.0331
  16   1.0000      -3.749648      -102.0331
  17   1.0000      -3.749648      -102.0331
  18   1.0000      -1.222911       -33.2771
  19   1.0000      -1.222911       -33.2771
  20   1.0000      -1.222911       -33.2771
  21   1.0000      -1.222911       -33.2771
  22   1.0000      -1.222911       -33.2771
  23   1.0000      -0.495972       -13.4961
  24   1.0000      -0.201024        -5.4701
  25   1.0000      -0.201024        -5.4701
  26   1.0000      -0.201024        -5.4701
  27   0.0000       0.037506         1.0206
  28   0.0000       0.037506         1.0206
  29   0.0000       0.037506         1.0206
  30   0.0000       0.050811         1.3826
  31   0.0000       0.141335         3.8459

                 SPIN DOWN ORBITALS
  NO   OCC          E(Eh)            E(eV)
   0   1.0000   -1160.591116    -31581.2898
   1   1.0000    -171.663580     -4671.2035
   2   1.0000    -153.886142     -4187.4548
   3   1.0000    -153.886142     -4187.4548
   4   1.0000    -153.886142     -4187.4548
   5   1.0000     -33.472023      -910.8200
   6   1.0000     -27.736773      -754.7560
   7   1.0000     -27.736773      -754.7560
   8   1.0000     -27.736773      -754.7560
   9   1.0000     -19.011225      -517.3217
  10   1.0000     -19.011225      -517.3217
  11   1.0000     -19.011225      -517.3217
  12   1.0000     -19.011225      -517.3217
  13   1.0000     -19.011225      -517.3217
  14   1.0000      -5.493044      -149.4733
  15   1.0000      -3.744831      -101.9020
  16   1.0000      -3.744831      -101.9020
  17   1.0000      -3.744831      -101.9020
  18   1.0000      -1.212848       -33.0033
  19   1.0000      -1.212848       -33.0033
  20   1.0000      -1.212848       -33.0033
  21   1.0000      -1.212848       -33.0033
  22   1.0000      -1.212848       -33.0033
  23   1.0000      -0.428479       -11.6595
  24   0.0000      -0.129593        -3.5264
  25   0.0000      -0.129593        -3.5264
  26   0.0000      -0.129593        -3.5264
  27   0.0000       0.077123         2.0986
  28   0.0000       0.077123         2.0986

MULLIKEN ATOMIC CHARGES AND SPIN POPULATIONS
--------------------------------------------
   0 Sb:    0.000000    3.000000
Sum of atomic charges         :    0.0000000

LOEWDIN ATOMIC CHARGES AND SPIN POPULATIONS
-------------------------------------------
   0 Sb:    0.000000    3.000000

FINAL SINGLE POINT ENERGY     -6608.227748091589

DIPOLE MOMENT
-------------
                                X             Y             Z
Electronic contribution:      0.00000       0.00000       0.00000
Nuclear contribution   :      0.00000       0.00000       0.00000
                        -----------------------------------------
Total Dipole Moment    :      0.00000       0.00000       0.00000
                        -----------------------------------------
Magnitude (a.u.)       :      0.00000
Magnitude (Debye)      :      0.00000

Rotational constants in cm-1:     0.000000     0.000000     0.000000
Rotational constants in MHz :     0.000000     0.000000     0.000000

                             ****ORCA TERMINATED NORMALLY****
TOTAL RUN TIME: 0 days 0 hours 2 minutes 35 seconds 407 msec
