                         Program Version 5.0.1 -  RELEASE  -
|  1> !uks pbe nori verytightscf soscf notrah
|  2>
|  3> %pal
|  4>   nprocs 32
|  5> end
|  6> %coords
|  7>   charge 0
|  8>   mult 3
|  9>   units bohrs
| 10>   coords
| 11>     Sn 0.0 0.0 0.0
| 12>   end
| 13> end
| 14> %basis
| 15>   gtoname "Sn_ano-r3.basis"
| 16>   delECP Sn
| 17> end
| 18> %rel
| 19>   method zora
| 20>   modelpot 1, 0, 0, 0
| 21>   c 137.035999084
| 22> endd                         ****END OF INPUT****

CARTESIAN COORDINATES (ANGSTROEM)
---------------------------------
  Sn     0.000000    0.000000    0.000000

 Total Charge           Charge          ....    0
 Multiplicity           Mult            ....    3
 Number of Electrons    NEL             ....   50
 Basis Dimension        Dim             ....  104

ORBITAL ENERGIES
----------------
                 SPIN UP ORBITALS
  NO   OCC          E(Eh)            E(eV)
   0   1.0000   -1103.717276    -30033.6740
   1   1.0000    -162.445120     -4420.3564
   2   1.0000    -146.361352     -3982.6949
   3   1.0000    -146.359889     -3982.6551
   4   1.0000    -146.359889     -3982.6551
   5   1.0000     -31.184754      -848.5803
   6   1.0000     -25.878056      -704.1777
   7   1.0000     -25.874233      -704.0737
   8   1.0000     -25.874233      -704.0737
   9   1.0000     -17.500678      -476.2177
  10   1.0000     -17.499819      -476.1943
  11   1.0000     -17.499819      -476.1943
  12   1.0000     -17.497225      -476.1237
  13   1.0000     -17.497225      -476.1237
  14   1.0000      -4.922764      -133.9552
  15   1.0000      -3.316247       -90.2397
  16   1.0000      -3.306572       -89.9764
  17   1.0000      -3.306572       -89.9764
  18   1.0000      -0.951637       -25.8954
  19   1.0000      -0.949223       -25.8297
  20   1.0000      -0.949223       -25.8297
  21   1.0000      -0.940878       -25.6026
  22   1.0000      -0.940878       -25.6026
  23   1.0000      -0.400951       -10.9104
  24   1.0000      -0.151628        -4.1260
  25   1.0000      -0.151628        -4.1260
  26   0.0000      -0.148056        -4.0288
  27   0.0000      -0.006876        -0.1871
  28   0.0000       0.115818         3.1516
  29   0.0000       0.115818         3.1516
  30   0.0000       0.116181         3.1615

                 SPIN DOWN ORBITALS
  NO   OCC          E(Eh)            E(eV)
   0   1.0000   -1103.716214    -30033.6451
   1   1.0000    -162.444802     -4420.3478
   2   1.0000    -146.361046     -3982.6865
   3   1.0000    -146.358861     -3982.6271
   4   1.0000    -146.358861     -3982.6271
   5   1.0000     -31.183836      -848.5553
   6   1.0000     -25.877667      -704.1671
   7   1.0000     -25.872864      -704.0364
   8   1.0000     -25.872864      -704.0364
   9   1.0000     -17.500185      -476.2043
  10   1.0000     -17.499100      -476.1747
  11   1.0000     -17.499100      -476.1747
  12   1.0000     -17.495815      -476.0853
  13   1.0000     -17.495815      -476.0853
  14   1.0000      -4.920696      -133.8989
  15   1.0000      -3.315611       -90.2224
  16   1.0000      -3.303466       -89.8919
  17   1.0000      -3.303466       -89.8919
  18   1.0000      -0.948434       -25.8082
  19   1.0000      -0.944282       -25.6952
  20   1.0000      -0.944282       -25.6952
  21   1.0000      -0.932505       -25.3747
  22   1.0000      -0.932505       -25.3747
  23   1.0000      -0.359745        -9.7892
  24   0.0000      -0.124099        -3.3769
  25   0.0000      -0.096323        -2.6211
  26   0.0000      -0.096323        -2.6211
  27   0.0000       0.024537         0.6677
  28   0.0000       0.138212         3.7609

MULLIKEN ATOMIC CHARGES AND SPIN POPULATIONS
--------------------------------------------
   0 Sn:   -0.000000    2.000000
Sum of atomic charges         :   -0.0000000

LOEWDIN ATOMIC CHARGES AND SPIN POPULATIONS
-------------------------------------------
   0 Sn:   -0.000000    2.000000

FINAL SINGLE POINT ENERGY     -6279.411186436037

DIPOLE MOMENT
-------------
                                X             Y             Z
Electronic contribution:      0.00000      -0.00000      -0.00000
Nuclear contribution   :      0.00000       0.00000       0.00000
                        -----------------------------------------
Total Dipole Moment    :      0.00000      -0.00000      -0.00000
                        -----------------------------------------
Magnitude (a.u.)       :      0.00000
Magnitude (Debye)      :      0.00000

Rotational constants in cm-1:     0.000000     0.000000     0.000000
Rotational constants in MHz :     0.000000     0.000000     0.000000

                             ****ORCA TERMINATED NORMALLY****
TOTAL RUN TIME: 0 days 0 hours 55 minutes 13 seconds 128 msec
