                         Program Version 5.0.1 -  RELEASE  -
|  1> !uks pbe nori verytightscf soscf notrah
|  2>
|  3> %pal
|  4>   nprocs 32
|  5> end
|  6> %coords
|  7>   charge 0
|  8>   mult 3
|  9>   units bohrs
| 10>   coords
| 11>     Sn 0.0 0.0 0.0
| 12>   end
| 13> end
| 14> %basis
| 15>   gtoname "Sn_sapporo-qzp-2012-diffuse.basis"
| 16>   delECP Sn
| 17> end
| 18> %rel
| 19>   method zora
| 20>   modelpot 1, 0, 0, 0
| 21>   c 137.035999084
| 22> endd                         ****END OF INPUT****

CARTESIAN COORDINATES (ANGSTROEM)
---------------------------------
  Sn     0.000000    0.000000    0.000000

 Total Charge           Charge          ....    0
 Multiplicity           Mult            ....    3
 Number of Electrons    NEL             ....   50
 Basis Dimension        Dim             ....  181

ORBITAL ENERGIES
----------------
                 SPIN UP ORBITALS
  NO   OCC          E(Eh)            E(eV)
   0   1.0000   -1099.502901    -29918.9950
   1   1.0000    -161.306363     -4389.3693
   2   1.0000    -146.696361     -3991.8109
   3   1.0000    -146.694868     -3991.7703
   4   1.0000    -146.694868     -3991.7703
   5   1.0000     -30.860932      -839.7687
   6   1.0000     -25.865218      -703.8284
   7   1.0000     -25.861434      -703.7254
   8   1.0000     -25.861434      -703.7254
   9   1.0000     -17.502345      -476.2630
  10   1.0000     -17.501492      -476.2398
  11   1.0000     -17.501492      -476.2398
  12   1.0000     -17.498916      -476.1697
  13   1.0000     -17.498916      -476.1697
  14   1.0000      -4.874409      -132.6394
  15   1.0000      -3.320850       -90.3649
  16   1.0000      -3.311168       -90.1015
  17   1.0000      -3.311168       -90.1015
  18   1.0000      -0.959404       -26.1067
  19   1.0000      -0.956975       -26.0406
  20   1.0000      -0.956975       -26.0406
  21   1.0000      -0.948605       -25.8129
  22   1.0000      -0.948605       -25.8129
  23   1.0000      -0.397115       -10.8061
  24   1.0000      -0.152606        -4.1526
  25   1.0000      -0.152606        -4.1526
  26   0.0000      -0.149075        -4.0565
  27   0.0000      -0.020452        -0.5565
  28   0.0000       0.009075         0.2469
  29   0.0000       0.009075         0.2469
  30   0.0000       0.011129         0.3028

                 SPIN DOWN ORBITALS
  NO   OCC          E(Eh)            E(eV)
   0   1.0000   -1099.501874    -29918.9670
   1   1.0000    -161.306105     -4389.3623
   2   1.0000    -146.696082     -3991.8033
   3   1.0000    -146.693901     -3991.7440
   4   1.0000    -146.693901     -3991.7440
   5   1.0000     -30.860035      -839.7442
   6   1.0000     -25.864837      -703.8180
   7   1.0000     -25.860041      -703.6875
   8   1.0000     -25.860041      -703.6875
   9   1.0000     -17.501864      -476.2499
  10   1.0000     -17.500783      -476.2205
  11   1.0000     -17.500783      -476.2205
  12   1.0000     -17.497503      -476.1313
  13   1.0000     -17.497503      -476.1313
  14   1.0000      -4.872223      -132.5799
  15   1.0000      -3.320213       -90.3476
  16   1.0000      -3.308035       -90.0162
  17   1.0000      -3.308035       -90.0162
  18   1.0000      -0.956226       -26.0202
  19   1.0000      -0.952088       -25.9076
  20   1.0000      -0.952088       -25.9076
  21   1.0000      -0.940334       -25.5878
  22   1.0000      -0.940334       -25.5878
  23   1.0000      -0.355528        -9.6744
  24   0.0000      -0.125544        -3.4162
  25   0.0000      -0.097622        -2.6564
  26   0.0000      -0.097622        -2.6564
  27   0.0000       0.002029         0.0552
  28   0.0000       0.026139         0.7113

MULLIKEN ATOMIC CHARGES AND SPIN POPULATIONS
--------------------------------------------
   0 Sn:   -0.000000    2.000000
Sum of atomic charges         :   -0.0000000

LOEWDIN ATOMIC CHARGES AND SPIN POPULATIONS
-------------------------------------------
   0 Sn:    0.000000    2.000000

FINAL SINGLE POINT ENERGY     -6255.537072084675

DIPOLE MOMENT
-------------
                                X             Y             Z
Electronic contribution:      0.00000      -0.00000      -0.00000
Nuclear contribution   :      0.00000       0.00000       0.00000
                        -----------------------------------------
Total Dipole Moment    :      0.00000      -0.00000      -0.00000
                        -----------------------------------------
Magnitude (a.u.)       :      0.00000
Magnitude (Debye)      :      0.00000

Rotational constants in cm-1:     0.000000     0.000000     0.000000
Rotational constants in MHz :     0.000000     0.000000     0.000000

                             ****ORCA TERMINATED NORMALLY****
TOTAL RUN TIME: 0 days 0 hours 4 minutes 29 seconds 751 msec
