                         Program Version 5.0.1 -  RELEASE  -
|  1> !uks pbe nori verytightscf soscf notrah
|  2>
|  3> %pal
|  4>   nprocs 32
|  5> end
|  6> %coords
|  7>   charge 0
|  8>   mult 3
|  9>   units bohrs
| 10>   coords
| 11>     Sn 0.0 0.0 0.0
| 12>   end
| 13> end
| 14> %basis
| 15>   gtoname "Sn_sarc-zora-tzvpp.basis"
| 16>   delECP Sn
| 17> end
| 18> %rel
| 19>   method zora
| 20>   modelpot 1, 0, 0, 0
| 21>   c 137.035999084
| 22> endd                         ****END OF INPUT****

CARTESIAN COORDINATES (ANGSTROEM)
---------------------------------
  Sn     0.000000    0.000000    0.000000

 Total Charge           Charge          ....    0
 Multiplicity           Mult            ....    3
 Number of Electrons    NEL             ....   50
 Basis Dimension        Dim             ....   87

ORBITAL ENERGIES
----------------
                 SPIN UP ORBITALS
  NO   OCC          E(Eh)            E(eV)
   0   1.0000   -1109.380606    -30187.7810
   1   1.0000    -163.089665     -4437.8954
   2   1.0000    -146.229394     -3979.1041
   3   1.0000    -146.227870     -3979.0626
   4   1.0000    -146.227870     -3979.0626
   5   1.0000     -31.329059      -852.5070
   6   1.0000     -25.870124      -703.9619
   7   1.0000     -25.865855      -703.8457
   8   1.0000     -25.865855      -703.8457
   9   1.0000     -17.487901      -475.8700
  10   1.0000     -17.486943      -475.8439
  11   1.0000     -17.486943      -475.8439
  12   1.0000     -17.484047      -475.7651
  13   1.0000     -17.484047      -475.7651
  14   1.0000      -4.959288      -134.9491
  15   1.0000      -3.321318       -90.3777
  16   1.0000      -3.310132       -90.0733
  17   1.0000      -3.310132       -90.0733
  18   1.0000      -0.949621       -25.8405
  19   1.0000      -0.946802       -25.7638
  20   1.0000      -0.946802       -25.7638
  21   1.0000      -0.937365       -25.5070
  22   1.0000      -0.937365       -25.5070
  23   1.0000      -0.403858       -10.9895
  24   1.0000      -0.151610        -4.1255
  25   1.0000      -0.151610        -4.1255
  26   0.0000      -0.148664        -4.0453
  27   0.0000       0.023860         0.6493
  28   0.0000       0.023860         0.6493
  29   0.0000       0.026109         0.7105
  30   0.0000       0.052826         1.4375

                 SPIN DOWN ORBITALS
  NO   OCC          E(Eh)            E(eV)
   0   1.0000   -1109.379509    -30187.7512
   1   1.0000    -163.089357     -4437.8870
   2   1.0000    -146.229091     -3979.0959
   3   1.0000    -146.226822     -3979.0341
   4   1.0000    -146.226822     -3979.0341
   5   1.0000     -31.328144      -852.4821
   6   1.0000     -25.869737      -703.9513
   7   1.0000     -25.864471      -703.8080
   8   1.0000     -25.864471      -703.8080
   9   1.0000     -17.487429      -475.8571
  10   1.0000     -17.486246      -475.8249
  11   1.0000     -17.486246      -475.8249
  12   1.0000     -17.482663      -475.7274
  13   1.0000     -17.482663      -475.7274
  14   1.0000      -4.957233      -134.8932
  15   1.0000      -3.320647       -90.3594
  16   1.0000      -3.307088       -89.9904
  17   1.0000      -3.307088       -89.9904
  18   1.0000      -0.946319       -25.7507
  19   1.0000      -0.941890       -25.6301
  20   1.0000      -0.941890       -25.6301
  21   1.0000      -0.929147       -25.2834
  22   1.0000      -0.929147       -25.2834
  23   1.0000      -0.362863        -9.8740
  24   0.0000      -0.124284        -3.3819
  25   0.0000      -0.096403        -2.6233
  26   0.0000      -0.096403        -2.6233
  27   0.0000       0.048917         1.3311
  28   0.0000       0.057180         1.5559

MULLIKEN ATOMIC CHARGES AND SPIN POPULATIONS
--------------------------------------------
   0 Sn:   -0.000000    2.000000
Sum of atomic charges         :   -0.0000000

LOEWDIN ATOMIC CHARGES AND SPIN POPULATIONS
-------------------------------------------
   0 Sn:   -0.000000    2.000000

FINAL SINGLE POINT ENERGY     -6293.109230420776

DIPOLE MOMENT
-------------
                                X             Y             Z
Electronic contribution:     -0.00000       0.00000       0.00000
Nuclear contribution   :      0.00000       0.00000       0.00000
                        -----------------------------------------
Total Dipole Moment    :     -0.00000       0.00000       0.00000
                        -----------------------------------------
Magnitude (a.u.)       :      0.00000
Magnitude (Debye)      :      0.00000

Rotational constants in cm-1:     0.000000     0.000000     0.000000
Rotational constants in MHz :     0.000000     0.000000     0.000000

                             ****ORCA TERMINATED NORMALLY****
TOTAL RUN TIME: 0 days 0 hours 3 minutes 57 seconds 595 msec
