                         Program Version 5.0.1 -  RELEASE  -
|  1> !uks pbe nori verytightscf soscf notrah
|  2>
|  3> %pal
|  4>   nprocs 32
|  5> end
|  6> %coords
|  7>   charge 0
|  8>   mult 1
|  9>   units bohrs
| 10>   coords
| 11>     Sr 0.0 0.0 0.0
| 12>   end
| 13> end
| 14> %basis
| 15>   gtoname "Sr_sapporo-qzp-2012-diffuse.basis"
| 16>   delECP Sr
| 17> end
| 18> %rel
| 19>   method zora
| 20>   modelpot 1, 0, 0, 0
| 21>   c 137.035999084
| 22> endd                         ****END OF INPUT****

CARTESIAN COORDINATES (ANGSTROEM)
---------------------------------
  Sr     0.000000    0.000000    0.000000

 Total Charge           Charge          ....    0
 Multiplicity           Mult            ....    1
 Number of Electrons    NEL             ....   38
 Basis Dimension        Dim             ....  107

ORBITAL ENERGIES
----------------
                 SPIN UP ORBITALS
  NO   OCC          E(Eh)            E(eV)
   0   1.0000    -598.435668    -16284.2624
   1   1.0000     -79.844834     -2172.6884
   2   1.0000     -71.356472     -1941.7083
   3   1.0000     -71.356472     -1941.7083
   4   1.0000     -71.356472     -1941.7083
   5   1.0000     -12.267129      -333.8055
   6   1.0000      -9.473824      -257.7959
   7   1.0000      -9.473824      -257.7959
   8   1.0000      -9.473824      -257.7959
   9   1.0000      -4.727928      -128.6535
  10   1.0000      -4.727928      -128.6535
  11   1.0000      -4.727928      -128.6535
  12   1.0000      -4.727928      -128.6535
  13   1.0000      -4.727928      -128.6535
  14   1.0000      -1.500771       -40.8381
  15   1.0000      -0.843624       -22.9562
  16   1.0000      -0.843624       -22.9562
  17   1.0000      -0.843624       -22.9562
  18   1.0000      -0.129391        -3.5209
  19   0.0000      -0.047450        -1.2912
  20   0.0000      -0.047450        -1.2912
  21   0.0000      -0.047450        -1.2912
  22   0.0000      -0.044274        -1.2047
  23   0.0000      -0.044274        -1.2047

                 SPIN DOWN ORBITALS
  NO   OCC          E(Eh)            E(eV)
   0   1.0000    -598.435668    -16284.2624
   1   1.0000     -79.844834     -2172.6884
   2   1.0000     -71.356472     -1941.7083
   3   1.0000     -71.356472     -1941.7083
   4   1.0000     -71.356472     -1941.7083
   5   1.0000     -12.267129      -333.8055
   6   1.0000      -9.473824      -257.7959
   7   1.0000      -9.473824      -257.7959
   8   1.0000      -9.473824      -257.7959
   9   1.0000      -4.727928      -128.6535
  10   1.0000      -4.727928      -128.6535
  11   1.0000      -4.727928      -128.6535
  12   1.0000      -4.727928      -128.6535
  13   1.0000      -4.727928      -128.6535
  14   1.0000      -1.500771       -40.8381
  15   1.0000      -0.843624       -22.9562
  16   1.0000      -0.843624       -22.9562
  17   1.0000      -0.843624       -22.9562
  18   1.0000      -0.129391        -3.5209
  19   0.0000      -0.047450        -1.2912
  20   0.0000      -0.047450        -1.2912
  21   0.0000      -0.047450        -1.2912
  22   0.0000      -0.044274        -1.2047
  23   0.0000      -0.044274        -1.2047

MULLIKEN ATOMIC CHARGES AND SPIN POPULATIONS
--------------------------------------------
   0 Sr:   -0.000000    0.000000
Sum of atomic charges         :   -0.0000000

LOEWDIN ATOMIC CHARGES AND SPIN POPULATIONS
-------------------------------------------
   0 Sr:   -0.000000    0.000000

FINAL SINGLE POINT ENERGY     -3208.138563739415

DIPOLE MOMENT
-------------
                                X             Y             Z
Electronic contribution:     -0.00000       0.00000       0.00000
Nuclear contribution   :      0.00000       0.00000       0.00000
                        -----------------------------------------
Total Dipole Moment    :     -0.00000       0.00000       0.00000
                        -----------------------------------------
Magnitude (a.u.)       :      0.00000
Magnitude (Debye)      :      0.00000

Rotational constants in cm-1:     0.000000     0.000000     0.000000
Rotational constants in MHz :     0.000000     0.000000     0.000000

                             ****ORCA TERMINATED NORMALLY****
TOTAL RUN TIME: 0 days 0 hours 4 minutes 5 seconds 268 msec
