                         Program Version 5.0.1 -  RELEASE  -
|  1> !uks pbe nori verytightscf soscf notrah
|  2>
|  3> %pal
|  4>   nprocs 32
|  5> end
|  6> %coords
|  7>   charge 0
|  8>   mult 1
|  9>   units bohrs
| 10>   coords
| 11>     Sr 0.0 0.0 0.0
| 12>   end
| 13> end
| 14> %basis
| 15>   gtoname "Sr_sarc-zora-tzvpp.basis"
| 16>   delECP Sr
| 17> end
| 18> %rel
| 19>   method zora
| 20>   modelpot 1, 0, 0, 0
| 21>   c 137.035999084
| 22> endd                         ****END OF INPUT****

CARTESIAN COORDINATES (ANGSTROEM)
---------------------------------
  Sr     0.000000    0.000000    0.000000

 Total Charge           Charge          ....    0
 Multiplicity           Mult            ....    1
 Number of Electrons    NEL             ....   38
 Basis Dimension        Dim             ....   77

ORBITAL ENERGIES
----------------
                 SPIN UP ORBITALS
  NO   OCC          E(Eh)            E(eV)
   0   1.0000    -599.188215    -16304.7402
   1   1.0000     -79.944088     -2175.3892
   2   1.0000     -70.974997     -1931.3278
   3   1.0000     -70.974997     -1931.3278
   4   1.0000     -70.974997     -1931.3278
   5   1.0000     -12.330474      -335.5293
   6   1.0000      -9.451480      -257.1878
   7   1.0000      -9.451480      -257.1878
   8   1.0000      -9.451480      -257.1878
   9   1.0000      -4.711106      -128.1957
  10   1.0000      -4.711106      -128.1957
  11   1.0000      -4.711106      -128.1957
  12   1.0000      -4.711106      -128.1957
  13   1.0000      -4.711106      -128.1957
  14   1.0000      -1.507287       -41.0154
  15   1.0000      -0.838845       -22.8261
  16   1.0000      -0.838845       -22.8261
  17   1.0000      -0.838845       -22.8261
  18   1.0000      -0.128854        -3.5063
  19   0.0000      -0.044782        -1.2186
  20   0.0000      -0.044782        -1.2186
  21   0.0000      -0.044782        -1.2186
  22   0.0000      -0.039979        -1.0879
  23   0.0000      -0.039979        -1.0879

                 SPIN DOWN ORBITALS
  NO   OCC          E(Eh)            E(eV)
   0   1.0000    -599.188215    -16304.7402
   1   1.0000     -79.944088     -2175.3892
   2   1.0000     -70.974997     -1931.3278
   3   1.0000     -70.974997     -1931.3278
   4   1.0000     -70.974997     -1931.3278
   5   1.0000     -12.330474      -335.5293
   6   1.0000      -9.451480      -257.1878
   7   1.0000      -9.451480      -257.1878
   8   1.0000      -9.451480      -257.1878
   9   1.0000      -4.711106      -128.1957
  10   1.0000      -4.711106      -128.1957
  11   1.0000      -4.711106      -128.1957
  12   1.0000      -4.711106      -128.1957
  13   1.0000      -4.711106      -128.1957
  14   1.0000      -1.507287       -41.0154
  15   1.0000      -0.838845       -22.8261
  16   1.0000      -0.838845       -22.8261
  17   1.0000      -0.838845       -22.8261
  18   1.0000      -0.128854        -3.5063
  19   0.0000      -0.044782        -1.2186
  20   0.0000      -0.044782        -1.2186
  21   0.0000      -0.044782        -1.2186
  22   0.0000      -0.039979        -1.0879
  23   0.0000      -0.039979        -1.0879

MULLIKEN ATOMIC CHARGES AND SPIN POPULATIONS
--------------------------------------------
   0 Sr:   -0.000000    0.000000
Sum of atomic charges         :   -0.0000000

LOEWDIN ATOMIC CHARGES AND SPIN POPULATIONS
-------------------------------------------
   0 Sr:   -0.000000    0.000000

FINAL SINGLE POINT ENERGY     -3215.646796242580

DIPOLE MOMENT
-------------
                                X             Y             Z
Electronic contribution:      0.00000      -0.00000      -0.00000
Nuclear contribution   :      0.00000       0.00000       0.00000
                        -----------------------------------------
Total Dipole Moment    :      0.00000      -0.00000      -0.00000
                        -----------------------------------------
Magnitude (a.u.)       :      0.00000
Magnitude (Debye)      :      0.00000

Rotational constants in cm-1:     0.000000     0.000000     0.000000
Rotational constants in MHz :     0.000000     0.000000     0.000000

                             ****ORCA TERMINATED NORMALLY****
TOTAL RUN TIME: 0 days 0 hours 4 minutes 6 seconds 735 msec
