                         Program Version 5.0.1 -  RELEASE  -
|  1> !uks pbe nori verytightscf soscf notrah
|  2>
|  3> %pal
|  4>   nprocs 32
|  5> end
|  6> %coords
|  7>   charge 0
|  8>   mult 6
|  9>   units bohrs
| 10>   coords
| 11>     Tc 0.0 0.0 0.0
| 12>   end
| 13> end
| 14> %basis
| 15>   gtoname "Tc_sarc-zora-tzvpp.basis"
| 16>   delECP Tc
| 17> end
| 18> %rel
| 19>   method zora
| 20>   modelpot 1, 0, 0, 0
| 21>   c 137.035999084
| 22> endd                         ****END OF INPUT****

CARTESIAN COORDINATES (ANGSTROEM)
---------------------------------
  Tc     0.000000    0.000000    0.000000

 Total Charge           Charge          ....    0
 Multiplicity           Mult            ....    6
 Number of Electrons    NEL             ....   43
 Basis Dimension        Dim             ....   98

ORBITAL ENERGIES
----------------
                 SPIN UP ORBITALS
  NO   OCC          E(Eh)            E(eV)
   0   1.0000    -789.527991    -21484.1489
   1   1.0000    -110.417904     -3004.6239
   2   1.0000     -98.716236     -2686.2053
   3   1.0000     -98.713065     -2686.1191
   4   1.0000     -98.711240     -2686.0694
   5   1.0000     -19.094798      -519.5959
   6   1.0000     -15.284258      -415.9058
   7   1.0000     -15.277555      -415.7234
   8   1.0000     -15.276669      -415.6993
   9   1.0000      -9.127739      -248.3784
  10   1.0000      -9.127733      -248.3782
  11   1.0000      -9.126056      -248.3326
  12   1.0000      -9.123497      -248.2630
  13   1.0000      -9.118846      -248.1364
  14   1.0000      -2.669701       -72.6463
  15   1.0000      -1.653533       -44.9949
  16   1.0000      -1.640832       -44.6493
  17   1.0000      -1.620088       -44.0848
  18   1.0000      -0.242241        -6.5917
  19   1.0000      -0.241809        -6.5800
  20   1.0000      -0.224652        -6.1131
  21   1.0000      -0.222906        -6.0656
  22   1.0000      -0.210544        -5.7292
  23   1.0000      -0.175967        -4.7883
  24   0.0000      -0.053390        -1.4528
  25   0.0000      -0.053112        -1.4453
  26   0.0000      -0.037090        -1.0093
  27   0.0000       0.073864         2.0099
  28   0.0000       0.074226         2.0198

                 SPIN DOWN ORBITALS
  NO   OCC          E(Eh)            E(eV)
   0   1.0000    -789.527999    -21484.1491
   1   1.0000    -110.400477     -3004.1497
   2   1.0000     -98.702073     -2685.8199
   3   1.0000     -98.699860     -2685.7597
   4   1.0000     -98.699652     -2685.7541
   5   1.0000     -19.084649      -519.3197
   6   1.0000     -15.272217      -415.5782
   7   1.0000     -15.266311      -415.4174
   8   1.0000     -15.265555      -415.3969
   9   1.0000      -9.110594      -247.9119
  10   1.0000      -9.109458      -247.8810
  11   1.0000      -9.108625      -247.8583
  12   1.0000      -9.105197      -247.7650
  13   1.0000      -9.104554      -247.7475
  14   1.0000      -2.572277       -69.9952
  15   1.0000      -1.536677       -41.8151
  16   1.0000      -1.534473       -41.7551
  17   1.0000      -1.523154       -41.4471
  18   1.0000      -0.130890        -3.5617
  19   0.0000      -0.119442        -3.2502
  20   0.0000      -0.117778        -3.2049
  21   0.0000      -0.115341        -3.1386
  22   0.0000      -0.113691        -3.0937
  23   0.0000      -0.105416        -2.8685

MULLIKEN ATOMIC CHARGES AND SPIN POPULATIONS
--------------------------------------------
   0 Tc:    0.000000    5.000000
Sum of atomic charges         :    0.0000000

LOEWDIN ATOMIC CHARGES AND SPIN POPULATIONS
-------------------------------------------
   0 Tc:   -0.000000    5.000000

FINAL SINGLE POINT ENERGY     -4346.706157798861

DIPOLE MOMENT
-------------
                                X             Y             Z
Electronic contribution:     -0.00000       0.00000      -0.00000
Nuclear contribution   :      0.00000       0.00000       0.00000
                        -----------------------------------------
Total Dipole Moment    :     -0.00000       0.00000      -0.00000
                        -----------------------------------------
Magnitude (a.u.)       :      0.00000
Magnitude (Debye)      :      0.00000

Rotational constants in cm-1:     0.000000     0.000000     0.000000
Rotational constants in MHz :     0.000000     0.000000     0.000000

                             ****ORCA TERMINATED NORMALLY****
TOTAL RUN TIME: 0 days 0 hours 11 minutes 22 seconds 922 msec
