                         Program Version 5.0.1 -  RELEASE  -
|  1> !uks pbe nori verytightscf soscf notrah
|  2>
|  3> %pal
|  4>   nprocs 32
|  5> end
|  6> %coords
|  7>   charge 0
|  8>   mult 6
|  9>   units bohrs
| 10>   coords
| 11>     Tc 0.0 0.0 0.0
| 12>   end
| 13> end
| 14> %basis
| 15>   gtoname "Tc_ugbs.basis"
| 16>   delECP Tc
| 17> end
| 18> %rel
| 19>   method zora
| 20>   modelpot 1, 0, 0, 0
| 21>   c 137.035999084
| 22> endd                         ****END OF INPUT****

CARTESIAN COORDINATES (ANGSTROEM)
---------------------------------
  Tc     0.000000    0.000000    0.000000

 Total Charge           Charge          ....    0
 Multiplicity           Mult            ....    6
 Number of Electrons    NEL             ....   43
 Basis Dimension        Dim             ....  183

ORBITAL ENERGIES
----------------
                 SPIN UP ORBITALS
  NO   OCC          E(Eh)            E(eV)
   0   1.0000    -789.484108    -21482.9548
   1   1.0000    -110.354038     -3002.8860
   2   1.0000     -98.644665     -2684.2578
   3   1.0000     -98.641468     -2684.1708
   4   1.0000     -98.638488     -2684.0897
   5   1.0000     -19.082235      -519.2540
   6   1.0000     -15.275586      -415.6698
   7   1.0000     -15.270210      -415.5235
   8   1.0000     -15.259767      -415.2394
   9   1.0000      -9.120810      -248.1899
  10   1.0000      -9.120742      -248.1880
  11   1.0000      -9.114100      -248.0073
  12   1.0000      -9.111604      -247.9394
  13   1.0000      -9.105445      -247.7718
  14   1.0000      -2.671368       -72.6916
  15   1.0000      -1.655005       -45.0350
  16   1.0000      -1.634043       -44.4646
  17   1.0000      -1.631969       -44.4081
  18   1.0000      -0.240461        -6.5433
  19   1.0000      -0.237757        -6.4697
  20   1.0000      -0.230773        -6.2797
  21   1.0000      -0.228873        -6.2280
  22   1.0000      -0.217452        -5.9172
  23   1.0000      -0.183065        -4.9815
  24   0.0000      -0.044139        -1.2011
  25   0.0000      -0.042684        -1.1615
  26   0.0000      -0.032276        -0.8783
  27   0.0000       0.007637         0.2078
  28   0.0000       0.114488         3.1154

                 SPIN DOWN ORBITALS
  NO   OCC          E(Eh)            E(eV)
   0   1.0000    -789.484105    -21482.9547
   1   1.0000    -110.335104     -3002.3708
   2   1.0000     -98.629407     -2683.8426
   3   1.0000     -98.627770     -2683.7981
   4   1.0000     -98.624984     -2683.7223
   5   1.0000     -19.072196      -518.9808
   6   1.0000     -15.263027      -415.3281
   7   1.0000     -15.257856      -415.1874
   8   1.0000     -15.250630      -414.9907
   9   1.0000      -9.101658      -247.6687
  10   1.0000      -9.101165      -247.6553
  11   1.0000      -9.096442      -247.5268
  12   1.0000      -9.092756      -247.4265
  13   1.0000      -9.092524      -247.4202
  14   1.0000      -2.573108       -70.0178
  15   1.0000      -1.538315       -41.8597
  16   1.0000      -1.532216       -41.6937
  17   1.0000      -1.528464       -41.5916
  18   1.0000      -0.134276        -3.6538
  19   0.0000      -0.125479        -3.4145
  20   0.0000      -0.124530        -3.3886
  21   0.0000      -0.118349        -3.2204
  22   0.0000      -0.116372        -3.1666
  23   0.0000      -0.107757        -2.9322

MULLIKEN ATOMIC CHARGES AND SPIN POPULATIONS
--------------------------------------------
   0 Tc:   -0.000000    5.000000
Sum of atomic charges         :   -0.0000000

LOEWDIN ATOMIC CHARGES AND SPIN POPULATIONS
-------------------------------------------
   0 Tc:   -0.000000    5.000000

FINAL SINGLE POINT ENERGY     -4346.946083720433

DIPOLE MOMENT
-------------
                                X             Y             Z
Electronic contribution:      0.00000      -0.00000       0.00000
Nuclear contribution   :      0.00000       0.00000       0.00000
                        -----------------------------------------
Total Dipole Moment    :      0.00000      -0.00000       0.00000
                        -----------------------------------------
Magnitude (a.u.)       :      0.00000
Magnitude (Debye)      :      0.00000

Rotational constants in cm-1:     0.000000     0.000000     0.000000
Rotational constants in MHz :     0.000000     0.000000     0.000000

                             ****ORCA TERMINATED NORMALLY****
TOTAL RUN TIME: 0 days 0 hours 8 minutes 36 seconds 482 msec
