                         Program Version 5.0.1 -  RELEASE  -
|  1> !uks pbe nori verytightscf soscf notrah
|  2>
|  3> %pal
|  4>   nprocs 32
|  5> end
|  6> %coords
|  7>   charge 0
|  8>   mult 3
|  9>   units bohrs
| 10>   coords
| 11>     Te 0.0 0.0 0.0
| 12>   end
| 13> end
| 14> %basis
| 15>   gtoname "Te_ano-r3.basis"
| 16>   delECP Te
| 17> end
| 18> %rel
| 19>   method zora
| 20>   modelpot 1, 0, 0, 0
| 21>   c 137.035999084
| 22> endd                         ****END OF INPUT****

CARTESIAN COORDINATES (ANGSTROEM)
---------------------------------
  Te     0.000000    0.000000    0.000000

 Total Charge           Charge          ....    0
 Multiplicity           Mult            ....    3
 Number of Electrons    NEL             ....   52
 Basis Dimension        Dim             ....  120

ORBITAL ENERGIES
----------------
                 SPIN UP ORBITALS
  NO   OCC          E(Eh)            E(eV)
   0   1.0000   -1206.240364    -32823.4690
   1   1.0000    -179.932829     -4896.2212
   2   1.0000    -162.200154     -4413.6906
   3   1.0000    -162.200154     -4413.6906
   4   1.0000    -162.197119     -4413.6080
   5   1.0000     -35.606246      -968.8952
   6   1.0000     -29.779673      -810.3461
   7   1.0000     -29.779673      -810.3461
   8   1.0000     -29.773166      -810.1690
   9   1.0000     -20.709067      -563.5224
  10   1.0000     -20.709067      -563.5224
  11   1.0000     -20.704645      -563.4020
  12   1.0000     -20.704645      -563.4020
  13   1.0000     -20.703162      -563.3617
  14   1.0000      -6.043082      -164.4406
  15   1.0000      -4.230198      -115.1095
  16   1.0000      -4.230198      -115.1095
  17   1.0000      -4.215251      -114.7028
  18   1.0000      -1.539390       -41.8889
  19   1.0000      -1.539390       -41.8889
  20   1.0000      -1.525889       -41.5216
  21   1.0000      -1.525889       -41.5216
  22   1.0000      -1.521519       -41.4026
  23   1.0000      -0.572868       -15.5885
  24   1.0000      -0.250208        -6.8085
  25   1.0000      -0.250208        -6.8085
  26   1.0000      -0.214495        -5.8367
  27   0.0000      -0.000353        -0.0096
  28   0.0000       0.139209         3.7881
  29   0.0000       0.139209         3.7881
  30   0.0000       0.156213         4.2508
  31   0.0000       0.175178         4.7668

                 SPIN DOWN ORBITALS
  NO   OCC          E(Eh)            E(eV)
   0   1.0000   -1206.238596    -32823.4209
   1   1.0000    -179.932056     -4896.2002
   2   1.0000    -162.198287     -4413.6398
   3   1.0000    -162.198287     -4413.6398
   4   1.0000    -162.196424     -4413.5891
   5   1.0000     -35.604646      -968.8517
   6   1.0000     -29.777362      -810.2832
   7   1.0000     -29.777362      -810.2832
   8   1.0000     -29.772336      -810.1465
   9   1.0000     -20.706649      -563.4566
  10   1.0000     -20.706649      -563.4566
  11   1.0000     -20.703261      -563.3644
  12   1.0000     -20.703261      -563.3644
  13   1.0000     -20.702125      -563.3335
  14   1.0000      -6.039242      -164.3361
  15   1.0000      -4.224879      -114.9648
  16   1.0000      -4.224879      -114.9648
  17   1.0000      -4.213667      -114.6597
  18   1.0000      -1.528562       -41.5943
  19   1.0000      -1.528562       -41.5943
  20   1.0000      -1.520169       -41.3659
  21   1.0000      -1.520169       -41.3659
  22   1.0000      -1.516969       -41.2788
  23   1.0000      -0.523893       -14.2559
  24   1.0000      -0.194046        -5.2803
  25   0.0000      -0.185246        -5.0408
  26   0.0000      -0.185246        -5.0408
  27   0.0000       0.019619         0.5339
  28   0.0000       0.165883         4.5139
  29   0.0000       0.173693         4.7264

MULLIKEN ATOMIC CHARGES AND SPIN POPULATIONS
--------------------------------------------
   0 Te:    0.000000    2.000000
Sum of atomic charges         :    0.0000000

LOEWDIN ATOMIC CHARGES AND SPIN POPULATIONS
-------------------------------------------
   0 Te:   -0.000000    2.000000

FINAL SINGLE POINT ENERGY     -6914.502791155737

DIPOLE MOMENT
-------------
                                X             Y             Z
Electronic contribution:      0.00000       0.00000       0.00000
Nuclear contribution   :      0.00000       0.00000       0.00000
                        -----------------------------------------
Total Dipole Moment    :      0.00000       0.00000       0.00000
                        -----------------------------------------
Magnitude (a.u.)       :      0.00000
Magnitude (Debye)      :      0.00000

Rotational constants in cm-1:     0.000000     0.000000     0.000000
Rotational constants in MHz :     0.000000     0.000000     0.000000

                             ****ORCA TERMINATED NORMALLY****
TOTAL RUN TIME: 0 days 0 hours 59 minutes 42 seconds 292 msec
