                         Program Version 5.0.1 -  RELEASE  -
|  1> !uks pbe nori verytightscf soscf notrah
|  2>
|  3> %pal
|  4>   nprocs 32
|  5> end
|  6> %coords
|  7>   charge 0
|  8>   mult 3
|  9>   units bohrs
| 10>   coords
| 11>     Te 0.0 0.0 0.0
| 12>   end
| 13> end
| 14> %basis
| 15>   gtoname "Te_sarc-zora-tzvpp.basis"
| 16>   delECP Te
| 17> end
| 18> %rel
| 19>   method zora
| 20>   modelpot 1, 0, 0, 0
| 21>   c 137.035999084
| 22> endd                         ****END OF INPUT****

CARTESIAN COORDINATES (ANGSTROEM)
---------------------------------
  Te     0.000000    0.000000    0.000000

 Total Charge           Charge          ....    0
 Multiplicity           Mult            ....    3
 Number of Electrons    NEL             ....   52
 Basis Dimension        Dim             ....   87

ORBITAL ENERGIES
----------------
                 SPIN UP ORBITALS
  NO   OCC          E(Eh)            E(eV)
   0   1.0000   -1213.388153    -33017.9703
   1   1.0000    -180.779547     -4919.2616
   2   1.0000    -162.076014     -4410.3126
   3   1.0000    -162.076014     -4410.3126
   4   1.0000    -162.072859     -4410.2267
   5   1.0000     -35.798761      -974.1338
   6   1.0000     -29.778139      -810.3043
   7   1.0000     -29.778139      -810.3043
   8   1.0000     -29.771085      -810.1124
   9   1.0000     -20.701788      -563.3243
  10   1.0000     -20.701788      -563.3243
  11   1.0000     -20.697015      -563.1944
  12   1.0000     -20.697015      -563.1944
  13   1.0000     -20.695416      -563.1509
  14   1.0000      -6.092425      -165.7833
  15   1.0000      -4.236748      -115.2878
  16   1.0000      -4.236748      -115.2878
  17   1.0000      -4.220328      -114.8410
  18   1.0000      -1.536999       -41.8239
  19   1.0000      -1.536999       -41.8239
  20   1.0000      -1.522473       -41.4286
  21   1.0000      -1.522473       -41.4286
  22   1.0000      -1.517716       -41.2992
  23   1.0000      -0.578029       -15.7290
  24   1.0000      -0.250545        -6.8177
  25   1.0000      -0.250545        -6.8177
  26   1.0000      -0.214509        -5.8371
  27   0.0000       0.023705         0.6451
  28   0.0000       0.023705         0.6451
  29   0.0000       0.029628         0.8062
  30   0.0000       0.038829         1.0566
  31   0.0000       0.227536         6.1916

                 SPIN DOWN ORBITALS
  NO   OCC          E(Eh)            E(eV)
   0   1.0000   -1213.386338    -33017.9209
   1   1.0000    -180.778772     -4919.2405
   2   1.0000    -162.074104     -4410.2606
   3   1.0000    -162.074104     -4410.2606
   4   1.0000    -162.072158     -4410.2076
   5   1.0000     -35.797148      -974.0899
   6   1.0000     -29.775788      -810.2404
   7   1.0000     -29.775788      -810.2404
   8   1.0000     -29.770243      -810.0895
   9   1.0000     -20.699390      -563.2590
  10   1.0000     -20.699390      -563.2590
  11   1.0000     -20.695650      -563.1573
  12   1.0000     -20.695650      -563.1573
  13   1.0000     -20.694394      -563.1231
  14   1.0000      -6.088590      -165.6790
  15   1.0000      -4.231506      -115.1451
  16   1.0000      -4.231506      -115.1451
  17   1.0000      -4.218683      -114.7962
  18   1.0000      -1.526313       -41.5331
  19   1.0000      -1.526313       -41.5331
  20   1.0000      -1.516702       -41.2716
  21   1.0000      -1.516702       -41.2716
  22   1.0000      -1.513122       -41.1741
  23   1.0000      -0.529264       -14.4020
  24   1.0000      -0.193792        -5.2734
  25   0.0000      -0.185919        -5.0591
  26   0.0000      -0.185919        -5.0591
  27   0.0000       0.033968         0.9243
  28   0.0000       0.041587         1.1316
  29   0.0000       0.041606         1.1321

MULLIKEN ATOMIC CHARGES AND SPIN POPULATIONS
--------------------------------------------
   0 Te:    0.000000    2.000000
Sum of atomic charges         :    0.0000000

LOEWDIN ATOMIC CHARGES AND SPIN POPULATIONS
-------------------------------------------
   0 Te:    0.000000    2.000000

FINAL SINGLE POINT ENERGY     -6931.641768314137

DIPOLE MOMENT
-------------
                                X             Y             Z
Electronic contribution:      0.00000       0.00000       0.00000
Nuclear contribution   :      0.00000       0.00000       0.00000
                        -----------------------------------------
Total Dipole Moment    :      0.00000       0.00000       0.00000
                        -----------------------------------------
Magnitude (a.u.)       :      0.00000
Magnitude (Debye)      :      0.00000

Rotational constants in cm-1:     0.000000     0.000000     0.000000
Rotational constants in MHz :     0.000000     0.000000     0.000000

                             ****ORCA TERMINATED NORMALLY****
TOTAL RUN TIME: 0 days 0 hours 2 minutes 52 seconds 857 msec
