                         Program Version 5.0.1 -  RELEASE  -
|  1> !uks pbe nori verytightscf soscf notrah
|  2>
|  3> %pal
|  4>   nprocs 32
|  5> end
|  6> %coords
|  7>   charge 0
|  8>   mult 3
|  9>   units bohrs
| 10>   coords
| 11>     Te 0.0 0.0 0.0
| 12>   end
| 13> end
| 14> %basis
| 15>   gtoname "Te_sapporo-qzp-2012-diffuse.basis"
| 16>   delECP Te
| 17> end
| 18> %rel
| 19>   method zora
| 20>   modelpot 1, 0, 0, 0
| 21>   c 137.035999084
| 22> endd                         ****END OF INPUT****

CARTESIAN COORDINATES (ANGSTROEM)
---------------------------------
  Te     0.000000    0.000000    0.000000

 Total Charge           Charge          ....    0
 Multiplicity           Mult            ....    3
 Number of Electrons    NEL             ....   52
 Basis Dimension        Dim             ....  181

ORBITAL ENERGIES
----------------
                 SPIN UP ORBITALS
  NO   OCC          E(Eh)            E(eV)
   0   1.0000   -1200.390898    -32664.2969
   1   1.0000    -178.452016     -4855.9262
   2   1.0000    -162.564715     -4423.6108
   3   1.0000    -162.564715     -4423.6108
   4   1.0000    -162.561683     -4423.5283
   5   1.0000     -35.198581      -957.8021
   6   1.0000     -29.764188      -809.9247
   7   1.0000     -29.764188      -809.9247
   8   1.0000     -29.757675      -809.7475
   9   1.0000     -20.721389      -563.8577
  10   1.0000     -20.721389      -563.8577
  11   1.0000     -20.716964      -563.7373
  12   1.0000     -20.716964      -563.7373
  13   1.0000     -20.715481      -563.6969
  14   1.0000      -5.977996      -162.6696
  15   1.0000      -4.235317      -115.2488
  16   1.0000      -4.235317      -115.2488
  17   1.0000      -4.220387      -114.8426
  18   1.0000      -1.551195       -42.2102
  19   1.0000      -1.551195       -42.2102
  20   1.0000      -1.537743       -41.8441
  21   1.0000      -1.537743       -41.8441
  22   1.0000      -1.533385       -41.7255
  23   1.0000      -0.566494       -15.4151
  24   1.0000      -0.251312        -6.8385
  25   1.0000      -0.251312        -6.8385
  26   1.0000      -0.215675        -5.8688
  27   0.0000      -0.021415        -0.5827
  28   0.0000       0.015503         0.4218
  29   0.0000       0.015503         0.4218
  30   0.0000       0.020344         0.5536
  31   0.0000       0.046492         1.2651

                 SPIN DOWN ORBITALS
  NO   OCC          E(Eh)            E(eV)
   0   1.0000   -1200.389220    -32664.2513
   1   1.0000    -178.451323     -4855.9074
   2   1.0000    -162.562951     -4423.5628
   3   1.0000    -162.562951     -4423.5628
   4   1.0000    -162.561031     -4423.5105
   5   1.0000     -35.197019      -957.7596
   6   1.0000     -29.761833      -809.8607
   7   1.0000     -29.761833      -809.8607
   8   1.0000     -29.756837      -809.7247
   9   1.0000     -20.718956      -563.7915
  10   1.0000     -20.718956      -563.7915
  11   1.0000     -20.715578      -563.6995
  12   1.0000     -20.715578      -563.6995
  13   1.0000     -20.714445      -563.6687
  14   1.0000      -5.974024      -162.5615
  15   1.0000      -4.230001      -115.1042
  16   1.0000      -4.230001      -115.1042
  17   1.0000      -4.218778      -114.7988
  18   1.0000      -1.540479       -41.9186
  19   1.0000      -1.540479       -41.9186
  20   1.0000      -1.532063       -41.6896
  21   1.0000      -1.532063       -41.6896
  22   1.0000      -1.528860       -41.6024
  23   1.0000      -0.516799       -14.0628
  24   1.0000      -0.195320        -5.3149
  25   0.0000      -0.186542        -5.0761
  26   0.0000      -0.186542        -5.0761
  27   0.0000      -0.007959        -0.2166
  28   0.0000       0.023212         0.6316
  29   0.0000       0.029624         0.8061

MULLIKEN ATOMIC CHARGES AND SPIN POPULATIONS
--------------------------------------------
   0 Te:    0.000000    2.000000
Sum of atomic charges         :    0.0000000

LOEWDIN ATOMIC CHARGES AND SPIN POPULATIONS
-------------------------------------------
   0 Te:    0.000000    2.000000

FINAL SINGLE POINT ENERGY     -6884.241138404823

DIPOLE MOMENT
-------------
                                X             Y             Z
Electronic contribution:     -0.00000      -0.00000      -0.00000
Nuclear contribution   :      0.00000       0.00000       0.00000
                        -----------------------------------------
Total Dipole Moment    :     -0.00000      -0.00000      -0.00000
                        -----------------------------------------
Magnitude (a.u.)       :      0.00000
Magnitude (Debye)      :      0.00000

Rotational constants in cm-1:     0.000000     0.000000     0.000000
Rotational constants in MHz :     0.000000     0.000000     0.000000

                             ****ORCA TERMINATED NORMALLY****
TOTAL RUN TIME: 0 days 0 hours 9 minutes 25 seconds 717 msec
