                         Program Version 5.0.1 -  RELEASE  -
|  1> !uks pbe nori verytightscf soscf notrah
|  2>
|  3> %pal
|  4>   nprocs 32
|  5> end
|  6> %coords
|  7>   charge 0
|  8>   mult 3
|  9>   units bohrs
| 10>   coords
| 11>     Te 0.0 0.0 0.0
| 12>   end
| 13> end
| 14> %basis
| 15>   gtoname "Te_ugbs.basis"
| 16>   delECP Te
| 17> end
| 18> %rel
| 19>   method zora
| 20>   modelpot 1, 0, 0, 0
| 21>   c 137.035999084
| 22> endd                         ****END OF INPUT****

CARTESIAN COORDINATES (ANGSTROEM)
---------------------------------
  Te     0.000000    0.000000    0.000000

 Total Charge           Charge          ....    0
 Multiplicity           Mult            ....    3
 Number of Electrons    NEL             ....   52
 Basis Dimension        Dim             ....  179

ORBITAL ENERGIES
----------------
                 SPIN UP ORBITALS
  NO   OCC          E(Eh)            E(eV)
   0   1.0000   -1213.321270    -33016.1503
   1   1.0000    -180.645768     -4915.6212
   2   1.0000    -161.924186     -4406.1811
   3   1.0000    -161.924186     -4406.1811
   4   1.0000    -161.920912     -4406.0920
   5   1.0000     -35.753263      -972.8957
   6   1.0000     -29.734565      -809.1186
   7   1.0000     -29.734565      -809.1186
   8   1.0000     -29.726774      -808.9066
   9   1.0000     -20.657910      -562.1303
  10   1.0000     -20.657910      -562.1303
  11   1.0000     -20.652676      -561.9879
  12   1.0000     -20.652676      -561.9879
  13   1.0000     -20.650923      -561.9402
  14   1.0000      -6.080857      -165.4685
  15   1.0000      -4.229605      -115.0934
  16   1.0000      -4.229605      -115.0934
  17   1.0000      -4.210504      -114.5736
  18   1.0000      -1.539657       -41.8962
  19   1.0000      -1.539657       -41.8962
  20   1.0000      -1.523134       -41.4466
  21   1.0000      -1.523134       -41.4466
  22   1.0000      -1.517764       -41.3004
  23   1.0000      -0.577949       -15.7268
  24   1.0000      -0.250623        -6.8198
  25   1.0000      -0.250623        -6.8198
  26   1.0000      -0.213311        -5.8045
  27   0.0000       0.034703         0.9443
  28   0.0000       0.034703         0.9443
  29   0.0000       0.039691         1.0801
  30   0.0000       0.042444         1.1550
  31   0.0000       0.123911         3.3718

                 SPIN DOWN ORBITALS
  NO   OCC          E(Eh)            E(eV)
   0   1.0000   -1213.319462    -33016.1011
   1   1.0000    -180.645019     -4915.6009
   2   1.0000    -161.922283     -4406.1293
   3   1.0000    -161.922283     -4406.1293
   4   1.0000    -161.920229     -4406.0734
   5   1.0000     -35.751667      -972.8523
   6   1.0000     -29.732239      -809.0554
   7   1.0000     -29.732239      -809.0554
   8   1.0000     -29.725945      -808.8841
   9   1.0000     -20.655490      -562.0645
  10   1.0000     -20.655490      -562.0645
  11   1.0000     -20.651300      -561.9504
  12   1.0000     -20.651300      -561.9504
  13   1.0000     -20.649896      -561.9122
  14   1.0000      -6.076939      -165.3619
  15   1.0000      -4.224329      -114.9498
  16   1.0000      -4.224329      -114.9498
  17   1.0000      -4.208784      -114.5268
  18   1.0000      -1.529212       -41.6120
  19   1.0000      -1.529212       -41.6120
  20   1.0000      -1.517308       -41.2880
  21   1.0000      -1.517308       -41.2880
  22   1.0000      -1.512967       -41.1699
  23   1.0000      -0.528800       -14.3894
  24   1.0000      -0.190569        -5.1857
  25   0.0000      -0.187394        -5.0992
  26   0.0000      -0.187393        -5.0992
  27   0.0000       0.047612         1.2956
  28   0.0000       0.055097         1.4993
  29   0.0000       0.055125         1.5000

MULLIKEN ATOMIC CHARGES AND SPIN POPULATIONS
--------------------------------------------
   0 Te:    0.000000    2.000000
Sum of atomic charges         :    0.0000000

LOEWDIN ATOMIC CHARGES AND SPIN POPULATIONS
-------------------------------------------
   0 Te:    0.000000    2.000000

FINAL SINGLE POINT ENERGY     -6932.275505676577

DIPOLE MOMENT
-------------
                                X             Y             Z
Electronic contribution:      0.00000       0.00000       0.00000
Nuclear contribution   :      0.00000       0.00000       0.00000
                        -----------------------------------------
Total Dipole Moment    :      0.00000       0.00000       0.00000
                        -----------------------------------------
Magnitude (a.u.)       :      0.00000
Magnitude (Debye)      :      0.00000

Rotational constants in cm-1:     0.000000     0.000000     0.000000
Rotational constants in MHz :     0.000000     0.000000     0.000000

                             ****ORCA TERMINATED NORMALLY****
TOTAL RUN TIME: 0 days 0 hours 5 minutes 19 seconds 617 msec
