                         Program Version 5.0.1 -  RELEASE  -
|  1> !uks pbe nori verytightscf soscf notrah
|  2>
|  3> %pal
|  4>   nprocs 32
|  5> end
|  6> %coords
|  7>   charge 0
|  8>   mult 1
|  9>   units bohrs
| 10>   coords
| 11>     Xe 0.0 0.0 0.0
| 12>   end
| 13> end
| 14> %basis
| 15>   gtoname "Xe_ano-rcc-vqzp.basis"
| 16>   delECP Xe
| 17> end
| 18> %rel
| 19>   method zora
| 20>   modelpot 1, 0, 0, 0
| 21>   c 137.035999084
| 22> endd                         ****END OF INPUT****

CARTESIAN COORDINATES (ANGSTROEM)
---------------------------------
  Xe     0.000000    0.000000    0.000000

 Total Charge           Charge          ....    0
 Multiplicity           Mult            ....    1
 Number of Electrons    NEL             ....   54
 Basis Dimension        Dim             ....   93

ORBITAL ENERGIES
----------------
                 SPIN UP ORBITALS
  NO   OCC          E(Eh)            E(eV)
   0   1.0000   -1311.941368    -35699.7396
   1   1.0000    -198.267243     -5395.1260
   2   1.0000    -178.965882     -4869.9092
   3   1.0000    -178.965882     -4869.9092
   4   1.0000    -178.965882     -4869.9092
   5   1.0000     -40.313373     -1096.9827
   6   1.0000     -33.972460      -924.4376
   7   1.0000     -33.972460      -924.4376
   8   1.0000     -33.972460      -924.4376
   9   1.0000     -24.178057      -657.9184
  10   1.0000     -24.178057      -657.9184
  11   1.0000     -24.178057      -657.9184
  12   1.0000     -24.178057      -657.9184
  13   1.0000     -24.178057      -657.9184
  14   1.0000      -7.248297      -197.2362
  15   1.0000      -5.220454      -142.0558
  16   1.0000      -5.220454      -142.0558
  17   1.0000      -5.220454      -142.0558
  18   1.0000      -2.183756       -59.4230
  19   1.0000      -2.183756       -59.4230
  20   1.0000      -2.183756       -59.4230
  21   1.0000      -2.183756       -59.4230
  22   1.0000      -2.183756       -59.4230
  23   1.0000      -0.721306       -19.6277
  24   1.0000      -0.303161        -8.2494
  25   1.0000      -0.303161        -8.2494
  26   1.0000      -0.303161        -8.2494
  27   0.0000       0.097578         2.6552
  28   0.0000       0.184320         5.0156
  29   0.0000       0.184320         5.0156
  30   0.0000       0.184320         5.0156
  31   0.0000       0.214863         5.8467

                 SPIN DOWN ORBITALS
  NO   OCC          E(Eh)            E(eV)
   0   1.0000   -1311.941368    -35699.7396
   1   1.0000    -198.267243     -5395.1260
   2   1.0000    -178.965882     -4869.9092
   3   1.0000    -178.965882     -4869.9092
   4   1.0000    -178.965882     -4869.9092
   5   1.0000     -40.313373     -1096.9827
   6   1.0000     -33.972460      -924.4376
   7   1.0000     -33.972460      -924.4376
   8   1.0000     -33.972460      -924.4376
   9   1.0000     -24.178057      -657.9184
  10   1.0000     -24.178057      -657.9184
  11   1.0000     -24.178057      -657.9184
  12   1.0000     -24.178057      -657.9184
  13   1.0000     -24.178057      -657.9184
  14   1.0000      -7.248297      -197.2362
  15   1.0000      -5.220454      -142.0558
  16   1.0000      -5.220454      -142.0558
  17   1.0000      -5.220454      -142.0558
  18   1.0000      -2.183756       -59.4230
  19   1.0000      -2.183756       -59.4230
  20   1.0000      -2.183756       -59.4230
  21   1.0000      -2.183756       -59.4230
  22   1.0000      -2.183756       -59.4230
  23   1.0000      -0.721306       -19.6277
  24   1.0000      -0.303161        -8.2494
  25   1.0000      -0.303161        -8.2494
  26   1.0000      -0.303161        -8.2494
  27   0.0000       0.097578         2.6552
  28   0.0000       0.184320         5.0156
  29   0.0000       0.184320         5.0156
  30   0.0000       0.184320         5.0156
  31   0.0000       0.214863         5.8467

MULLIKEN ATOMIC CHARGES AND SPIN POPULATIONS
--------------------------------------------
   0 Xe:    0.000000    0.000000
Sum of atomic charges         :    0.0000000

LOEWDIN ATOMIC CHARGES AND SPIN POPULATIONS
-------------------------------------------
   0 Xe:   -0.000000    0.000000

FINAL SINGLE POINT ENERGY     -7582.010819702930

DIPOLE MOMENT
-------------
                                X             Y             Z
Electronic contribution:      0.00000       0.00000       0.00000
Nuclear contribution   :      0.00000       0.00000       0.00000
                        -----------------------------------------
Total Dipole Moment    :      0.00000       0.00000       0.00000
                        -----------------------------------------
Magnitude (a.u.)       :      0.00000
Magnitude (Debye)      :      0.00000

Rotational constants in cm-1:     0.000000     0.000000     0.000000
Rotational constants in MHz :     0.000000     0.000000     0.000000

                             ****ORCA TERMINATED NORMALLY****
TOTAL RUN TIME: 0 days 0 hours 11 minutes 27 seconds 848 msec
