                         Program Version 5.0.1 -  RELEASE  -
|  1> !uks pbe nori verytightscf soscf notrah
|  2>
|  3> %pal
|  4>   nprocs 32
|  5> end
|  6> %coords
|  7>   charge 0
|  8>   mult 1
|  9>   units bohrs
| 10>   coords
| 11>     Xe 0.0 0.0 0.0
| 12>   end
| 13> end
| 14> %basis
| 15>   gtoname "Xe_ano-r3.basis"
| 16>   delECP Xe
| 17> end
| 18> %rel
| 19>   method zora
| 20>   modelpot 1, 0, 0, 0
| 21>   c 137.035999084
| 22> endd                         ****END OF INPUT****

CARTESIAN COORDINATES (ANGSTROEM)
---------------------------------
  Xe     0.000000    0.000000    0.000000

 Total Charge           Charge          ....    0
 Multiplicity           Mult            ....    1
 Number of Electrons    NEL             ....   54
 Basis Dimension        Dim             ....  124

ORBITAL ENERGIES
----------------
                 SPIN UP ORBITALS
  NO   OCC          E(Eh)            E(eV)
   0   1.0000   -1316.701554    -35829.2708
   1   1.0000    -198.779439     -5409.0635
   2   1.0000    -178.965176     -4869.8900
   3   1.0000    -178.965176     -4869.8900
   4   1.0000    -178.965176     -4869.8900
   5   1.0000     -40.412393     -1099.6771
   6   1.0000     -33.970201      -924.3762
   7   1.0000     -33.970201      -924.3762
   8   1.0000     -33.970201      -924.3762
   9   1.0000     -24.173705      -657.7999
  10   1.0000     -24.173705      -657.7999
  11   1.0000     -24.173705      -657.7999
  12   1.0000     -24.173705      -657.7999
  13   1.0000     -24.173705      -657.7999
  14   1.0000      -7.268675      -197.7907
  15   1.0000      -5.219246      -142.0229
  16   1.0000      -5.219246      -142.0229
  17   1.0000      -5.219246      -142.0229
  18   1.0000      -2.182443       -59.3873
  19   1.0000      -2.182443       -59.3873
  20   1.0000      -2.182443       -59.3873
  21   1.0000      -2.182443       -59.3873
  22   1.0000      -2.182443       -59.3873
  23   1.0000      -0.724174       -19.7058
  24   1.0000      -0.302822        -8.2402
  25   1.0000      -0.302822        -8.2402
  26   1.0000      -0.302822        -8.2402
  27   0.0000       0.016251         0.4422
  28   0.0000       0.190909         5.1949
  29   0.0000       0.190909         5.1949
  30   0.0000       0.190909         5.1949
  31   0.0000       0.235914         6.4195

                 SPIN DOWN ORBITALS
  NO   OCC          E(Eh)            E(eV)
   0   1.0000   -1316.701554    -35829.2708
   1   1.0000    -198.779439     -5409.0635
   2   1.0000    -178.965176     -4869.8900
   3   1.0000    -178.965176     -4869.8900
   4   1.0000    -178.965176     -4869.8900
   5   1.0000     -40.412393     -1099.6771
   6   1.0000     -33.970201      -924.3762
   7   1.0000     -33.970201      -924.3762
   8   1.0000     -33.970201      -924.3762
   9   1.0000     -24.173705      -657.7999
  10   1.0000     -24.173705      -657.7999
  11   1.0000     -24.173705      -657.7999
  12   1.0000     -24.173705      -657.7999
  13   1.0000     -24.173705      -657.7999
  14   1.0000      -7.268675      -197.7907
  15   1.0000      -5.219246      -142.0229
  16   1.0000      -5.219246      -142.0229
  17   1.0000      -5.219246      -142.0229
  18   1.0000      -2.182443       -59.3873
  19   1.0000      -2.182443       -59.3873
  20   1.0000      -2.182443       -59.3873
  21   1.0000      -2.182443       -59.3873
  22   1.0000      -2.182443       -59.3873
  23   1.0000      -0.724174       -19.7058
  24   1.0000      -0.302822        -8.2402
  25   1.0000      -0.302822        -8.2402
  26   1.0000      -0.302822        -8.2402
  27   0.0000       0.016251         0.4422
  28   0.0000       0.190909         5.1949
  29   0.0000       0.190909         5.1949
  30   0.0000       0.190909         5.1949
  31   0.0000       0.235914         6.4195

MULLIKEN ATOMIC CHARGES AND SPIN POPULATIONS
--------------------------------------------
   0 Xe:   -0.000000    0.000000
Sum of atomic charges         :   -0.0000000

LOEWDIN ATOMIC CHARGES AND SPIN POPULATIONS
-------------------------------------------
   0 Xe:   -0.000000    0.000000

FINAL SINGLE POINT ENERGY     -7592.812953973292

DIPOLE MOMENT
-------------
                                X             Y             Z
Electronic contribution:      0.00000      -0.00000      -0.00000
Nuclear contribution   :      0.00000       0.00000       0.00000
                        -----------------------------------------
Total Dipole Moment    :      0.00000      -0.00000      -0.00000
                        -----------------------------------------
Magnitude (a.u.)       :      0.00000
Magnitude (Debye)      :      0.00000

Rotational constants in cm-1:     0.000000     0.000000     0.000000
Rotational constants in MHz :     0.000000     0.000000     0.000000

                             ****ORCA TERMINATED NORMALLY****
TOTAL RUN TIME: 0 days 0 hours 24 minutes 29 seconds 584 msec
