                         Program Version 5.0.1 -  RELEASE  -
|  1> !uks pbe nori verytightscf soscf notrah
|  2>
|  3> %pal
|  4>   nprocs 32
|  5> end
|  6> %coords
|  7>   charge 0
|  8>   mult 1
|  9>   units bohrs
| 10>   coords
| 11>     Xe 0.0 0.0 0.0
| 12>   end
| 13> end
| 14> %basis
| 15>   gtoname "Xe_sapporo-qzp-2012-diffuse.basis"
| 16>   delECP Xe
| 17> end
| 18> %rel
| 19>   method zora
| 20>   modelpot 1, 0, 0, 0
| 21>   c 137.035999084
| 22> endd                         ****END OF INPUT****

CARTESIAN COORDINATES (ANGSTROEM)
---------------------------------
  Xe     0.000000    0.000000    0.000000

 Total Charge           Charge          ....    0
 Multiplicity           Mult            ....    1
 Number of Electrons    NEL             ....   54
 Basis Dimension        Dim             ....  181

ORBITAL ENERGIES
----------------
                 SPIN UP ORBITALS
  NO   OCC          E(Eh)            E(eV)
   0   1.0000   -1306.456019    -35550.4756
   1   1.0000    -196.647474     -5351.0498
   2   1.0000    -179.352101     -4880.4188
   3   1.0000    -179.352101     -4880.4188
   4   1.0000    -179.352101     -4880.4188
   5   1.0000     -39.866810     -1084.8310
   6   1.0000     -33.949332      -923.8083
   7   1.0000     -33.949332      -923.8083
   8   1.0000     -33.949332      -923.8083
   9   1.0000     -24.198527      -658.4754
  10   1.0000     -24.198527      -658.4754
  11   1.0000     -24.198527      -658.4754
  12   1.0000     -24.198527      -658.4754
  13   1.0000     -24.198527      -658.4754
  14   1.0000      -7.175344      -195.2510
  15   1.0000      -5.224565      -142.1676
  16   1.0000      -5.224565      -142.1676
  17   1.0000      -5.224565      -142.1676
  18   1.0000      -2.199462       -59.8504
  19   1.0000      -2.199462       -59.8504
  20   1.0000      -2.199462       -59.8504
  21   1.0000      -2.199462       -59.8504
  22   1.0000      -2.199462       -59.8504
  23   1.0000      -0.712810       -19.3966
  24   1.0000      -0.304280        -8.2799
  25   1.0000      -0.304280        -8.2799
  26   1.0000      -0.304280        -8.2799
  27   0.0000      -0.014372        -0.3911
  28   0.0000       0.029008         0.7893
  29   0.0000       0.029008         0.7893
  30   0.0000       0.029008         0.7893
  31   0.0000       0.067731         1.8431

                 SPIN DOWN ORBITALS
  NO   OCC          E(Eh)            E(eV)
   0   1.0000   -1306.456019    -35550.4756
   1   1.0000    -196.647474     -5351.0498
   2   1.0000    -179.352101     -4880.4188
   3   1.0000    -179.352101     -4880.4188
   4   1.0000    -179.352101     -4880.4188
   5   1.0000     -39.866810     -1084.8310
   6   1.0000     -33.949332      -923.8083
   7   1.0000     -33.949332      -923.8083
   8   1.0000     -33.949332      -923.8083
   9   1.0000     -24.198527      -658.4754
  10   1.0000     -24.198527      -658.4754
  11   1.0000     -24.198527      -658.4754
  12   1.0000     -24.198527      -658.4754
  13   1.0000     -24.198527      -658.4754
  14   1.0000      -7.175344      -195.2510
  15   1.0000      -5.224565      -142.1676
  16   1.0000      -5.224565      -142.1676
  17   1.0000      -5.224565      -142.1676
  18   1.0000      -2.199462       -59.8504
  19   1.0000      -2.199462       -59.8504
  20   1.0000      -2.199462       -59.8504
  21   1.0000      -2.199462       -59.8504
  22   1.0000      -2.199462       -59.8504
  23   1.0000      -0.712810       -19.3966
  24   1.0000      -0.304280        -8.2799
  25   1.0000      -0.304280        -8.2799
  26   1.0000      -0.304280        -8.2799
  27   0.0000      -0.014372        -0.3911
  28   0.0000       0.029008         0.7893
  29   0.0000       0.029008         0.7893
  30   0.0000       0.029008         0.7893
  31   0.0000       0.067731         1.8431

MULLIKEN ATOMIC CHARGES AND SPIN POPULATIONS
--------------------------------------------
   0 Xe:   -0.000000    0.000000
Sum of atomic charges         :   -0.0000000

LOEWDIN ATOMIC CHARGES AND SPIN POPULATIONS
-------------------------------------------
   0 Xe:   -0.000000    0.000000

FINAL SINGLE POINT ENERGY     -7549.609178165962

DIPOLE MOMENT
-------------
                                X             Y             Z
Electronic contribution:      0.00000      -0.00000      -0.00000
Nuclear contribution   :      0.00000       0.00000       0.00000
                        -----------------------------------------
Total Dipole Moment    :      0.00000      -0.00000      -0.00000
                        -----------------------------------------
Magnitude (a.u.)       :      0.00000
Magnitude (Debye)      :      0.00000

Rotational constants in cm-1:     0.000000     0.000000     0.000000
Rotational constants in MHz :     0.000000     0.000000     0.000000

                             ****ORCA TERMINATED NORMALLY****
TOTAL RUN TIME: 0 days 0 hours 4 minutes 16 seconds 935 msec
