                         Program Version 5.0.1 -  RELEASE  -
|  1> !uks pbe nori verytightscf soscf notrah defgrid3
|  2>
|  3> %pal
|  4>   nprocs 32
|  5> end
|  6> %coords
|  7>   charge 0
|  8>   mult 1
|  9>   units bohrs
| 10>   coords
| 11>     Xe 0.0 0.0 0.0
| 12>   end
| 13> end
| 14> %basis
| 15>   gtoname "Xe_ugbs.basis"
| 16>   delECP Xe
| 17> end
| 18> %rel
| 19>   method zora
| 20>   modelpot 1, 0, 0, 0
| 21>   #c 237.035999084
| 22>   #c 200.0
| 23>   #c 190.0
| 24>   #c 180.0
| 25>   #c 174.0
| 26>   c 137.035999084
| 27> end
| 28>
| 29>                          ****END OF INPUT****

CARTESIAN COORDINATES (ANGSTROEM)
---------------------------------
  Xe     0.000000    0.000000    0.000000

 Total Charge           Charge          ....    0
 Multiplicity           Mult            ....    1
 Number of Electrons    NEL             ....   54
 Basis Dimension        Dim             ....  177

ORBITAL ENERGIES
----------------
                 SPIN UP ORBITALS
  NO   OCC          E(Eh)            E(eV)
   0   1.0000   -1323.188659    -36005.7939
   1   1.0000    -199.442139     -5427.0965
   2   1.0000    -178.672934     -4861.9377
   3   1.0000    -178.672934     -4861.9377
   4   1.0000    -178.672934     -4861.9377
   5   1.0000     -40.553333     -1103.5123
   6   1.0000     -33.921676      -923.0557
   7   1.0000     -33.921676      -923.0557
   8   1.0000     -33.921676      -923.0557
   9   1.0000     -24.117484      -656.2701
  10   1.0000     -24.117484      -656.2701
  11   1.0000     -24.117484      -656.2701
  12   1.0000     -24.117484      -656.2701
  13   1.0000     -24.117484      -656.2701
  14   1.0000      -7.307048      -198.8349
  15   1.0000      -5.216844      -141.9575
  16   1.0000      -5.216844      -141.9575
  17   1.0000      -5.216844      -141.9575
  18   1.0000      -2.180027       -59.3216
  19   1.0000      -2.180027       -59.3216
  20   1.0000      -2.180027       -59.3216
  21   1.0000      -2.180027       -59.3216
  22   1.0000      -2.180027       -59.3216
  23   1.0000      -0.729479       -19.8501
  24   1.0000      -0.302688        -8.2366
  25   1.0000      -0.302688        -8.2366
  26   1.0000      -0.302688        -8.2366
  27   0.0000       0.031341         0.8528
  28   0.0000       0.109382         2.9764
  29   0.0000       0.109382         2.9764
  30   0.0000       0.109382         2.9764
  31   0.0000       0.142521         3.8782

                 SPIN DOWN ORBITALS
  NO   OCC          E(Eh)            E(eV)
   0   1.0000   -1323.188659    -36005.7939
   1   1.0000    -199.442139     -5427.0965
   2   1.0000    -178.672934     -4861.9377
   3   1.0000    -178.672934     -4861.9377
   4   1.0000    -178.672934     -4861.9377
   5   1.0000     -40.553333     -1103.5123
   6   1.0000     -33.921676      -923.0557
   7   1.0000     -33.921676      -923.0557
   8   1.0000     -33.921676      -923.0557
   9   1.0000     -24.117484      -656.2701
  10   1.0000     -24.117484      -656.2701
  11   1.0000     -24.117484      -656.2701
  12   1.0000     -24.117484      -656.2701
  13   1.0000     -24.117484      -656.2701
  14   1.0000      -7.307048      -198.8349
  15   1.0000      -5.216844      -141.9575
  16   1.0000      -5.216844      -141.9575
  17   1.0000      -5.216844      -141.9575
  18   1.0000      -2.180027       -59.3216
  19   1.0000      -2.180027       -59.3216
  20   1.0000      -2.180027       -59.3216
  21   1.0000      -2.180027       -59.3216
  22   1.0000      -2.180027       -59.3216
  23   1.0000      -0.729479       -19.8501
  24   1.0000      -0.302688        -8.2366
  25   1.0000      -0.302688        -8.2366
  26   1.0000      -0.302688        -8.2366
  27   0.0000       0.031341         0.8528
  28   0.0000       0.109382         2.9764
  29   0.0000       0.109382         2.9764
  30   0.0000       0.109382         2.9764
  31   0.0000       0.142521         3.8782

MULLIKEN ATOMIC CHARGES AND SPIN POPULATIONS
--------------------------------------------
   0 Xe:   -0.000000   -0.000000
Sum of atomic charges         :   -0.0000000

LOEWDIN ATOMIC CHARGES AND SPIN POPULATIONS
-------------------------------------------
   0 Xe:   -0.000000   -0.000000

FINAL SINGLE POINT ENERGY     -7609.445602459658

DIPOLE MOMENT
-------------
                                X             Y             Z
Electronic contribution:     -0.00000       0.00000       0.00000
Nuclear contribution   :      0.00000       0.00000       0.00000
                        -----------------------------------------
Total Dipole Moment    :     -0.00000       0.00000       0.00000
                        -----------------------------------------
Magnitude (a.u.)       :      0.00000
Magnitude (Debye)      :      0.00000

Rotational constants in cm-1:     0.000000     0.000000     0.000000
Rotational constants in MHz :     0.000000     0.000000     0.000000

                             ****ORCA TERMINATED NORMALLY****
TOTAL RUN TIME: 0 days 0 hours 0 minutes 41 seconds 760 msec
