                         Program Version 5.0.1 -  RELEASE  -
|  1> !uks pbe nori verytightscf soscf notrah
|  2>
|  3> %pal
|  4>   nprocs 32
|  5> end
|  6> %coords
|  7>   charge 0
|  8>   mult 2
|  9>   units bohrs
| 10>   coords
| 11>     Y 0.0 0.0 0.0
| 12>   end
| 13> end
| 14> %basis
| 15>   gtoname "Y_ano-r3.basis"
| 16>   delECP Y
| 17> end
| 18> %rel
| 19>   method zora
| 20>   modelpot 1, 0, 0, 0
| 21>   c 137.035999084
| 22> endd                         ****END OF INPUT****

CARTESIAN COORDINATES (ANGSTROEM)
---------------------------------
   Y     0.000000    0.000000    0.000000

 Total Charge           Charge          ....    0
 Multiplicity           Mult            ....    2
 Number of Electrons    NEL             ....   39
 Basis Dimension        Dim             ....  106

ORBITAL ENERGIES
----------------
                 SPIN UP ORBITALS
  NO   OCC          E(Eh)            E(eV)
   0   1.0000    -633.248118    -17231.5573
   1   1.0000     -85.521662     -2327.1627
   2   1.0000     -76.292846     -2076.0339
   3   1.0000     -76.290568     -2075.9719
   4   1.0000     -76.290567     -2075.9719
   5   1.0000     -13.601758      -370.1226
   6   1.0000     -10.593106      -288.2531
   7   1.0000     -10.585756      -288.0531
   8   1.0000     -10.585756      -288.0531
   9   1.0000      -5.578735      -151.8051
  10   1.0000      -5.577214      -151.7637
  11   1.0000      -5.577214      -151.7637
  12   1.0000      -5.572134      -151.6255
  13   1.0000      -5.571744      -151.6149
  14   1.0000      -1.761873       -47.9430
  15   1.0000      -1.029191       -28.0057
  16   1.0000      -1.024867       -27.8881
  17   1.0000      -1.024866       -27.8880
  18   1.0000      -0.152790        -4.1576
  19   1.0000      -0.110151        -2.9974
  20   0.0000      -0.089677        -2.4402
  21   0.0000      -0.089671        -2.4401
  22   0.0000      -0.087731        -2.3873
  23   0.0000      -0.083010        -2.2588
  24   0.0000      -0.022316        -0.6072

                 SPIN DOWN ORBITALS
  NO   OCC          E(Eh)            E(eV)
   0   1.0000    -633.248208    -17231.5598
   1   1.0000     -85.520009     -2327.1177
   2   1.0000     -76.292782     -2076.0321
   3   1.0000     -76.288814     -2075.9242
   4   1.0000     -76.288814     -2075.9242
   5   1.0000     -13.600790      -370.0963
   6   1.0000     -10.592175      -288.2277
   7   1.0000     -10.584654      -288.0231
   8   1.0000     -10.584653      -288.0230
   9   1.0000      -5.577162      -151.7623
  10   1.0000      -5.575944      -151.7292
  11   1.0000      -5.575944      -151.7291
  12   1.0000      -5.572136      -151.6255
  13   1.0000      -5.567981      -151.5125
  14   1.0000      -1.749977       -47.6193
  15   1.0000      -1.028210       -27.9790
  16   1.0000      -1.003698       -27.3120
  17   1.0000      -1.003695       -27.3119
  18   1.0000      -0.144003        -3.9185
  19   0.0000      -0.084601        -2.3021
  20   0.0000      -0.083467        -2.2713
  21   0.0000      -0.083462        -2.2711
  22   0.0000      -0.069486        -1.8908
  23   0.0000      -0.053102        -1.4450

MULLIKEN ATOMIC CHARGES AND SPIN POPULATIONS
--------------------------------------------
   0  Y:   -0.000000    1.000000
Sum of atomic charges         :   -0.0000000

LOEWDIN ATOMIC CHARGES AND SPIN POPULATIONS
-------------------------------------------
   0  Y:   -0.000000    1.000000

FINAL SINGLE POINT ENERGY     -3421.309052657180

DIPOLE MOMENT
-------------
                                X             Y             Z
Electronic contribution:      0.00000       0.00000       0.00000
Nuclear contribution   :      0.00000       0.00000       0.00000
                        -----------------------------------------
Total Dipole Moment    :      0.00000       0.00000       0.00000
                        -----------------------------------------
Magnitude (a.u.)       :      0.00000
Magnitude (Debye)      :      0.00000

Rotational constants in cm-1:     0.000000     0.000000     0.000000
Rotational constants in MHz :     0.000000     0.000000     0.000000

                             ****ORCA TERMINATED NORMALLY****
TOTAL RUN TIME: 0 days 1 hours 17 minutes 10 seconds 164 msec
