                         Program Version 5.0.1 -  RELEASE  -
|  1> !uks pbe nori verytightscf soscf notrah
|  2>
|  3> %pal
|  4>   nprocs 32
|  5> end
|  6> %coords
|  7>   charge 0
|  8>   mult 2
|  9>   units bohrs
| 10>   coords
| 11>     Y 0.0 0.0 0.0
| 12>   end
| 13> end
| 14> %basis
| 15>   gtoname "Y_sarc-zora-tzvpp.basis"
| 16>   delECP Y
| 17> end
| 18> %rel
| 19>   method zora
| 20>   modelpot 1, 0, 0, 0
| 21>   c 137.035999084
| 22> endd                         ****END OF INPUT****

CARTESIAN COORDINATES (ANGSTROEM)
---------------------------------
   Y     0.000000    0.000000    0.000000

 Total Charge           Charge          ....    0
 Multiplicity           Mult            ....    2
 Number of Electrons    NEL             ....   39
 Basis Dimension        Dim             ....   98

ORBITAL ENERGIES
----------------
                 SPIN UP ORBITALS
  NO   OCC          E(Eh)            E(eV)
   0   1.0000    -634.909900    -17276.7767
   1   1.0000     -85.649566     -2330.6432
   2   1.0000     -76.186015     -2073.1269
   3   1.0000     -76.183691     -2073.0636
   4   1.0000     -76.183691     -2073.0636
   5   1.0000     -13.624645      -370.7454
   6   1.0000     -10.576388      -287.7981
   7   1.0000     -10.569004      -287.5972
   8   1.0000     -10.569004      -287.5972
   9   1.0000      -5.560930      -151.3206
  10   1.0000      -5.559385      -151.2785
  11   1.0000      -5.559384      -151.2785
  12   1.0000      -5.554277      -151.1396
  13   1.0000      -5.553920      -151.1298
  14   1.0000      -1.766155       -48.0595
  15   1.0000      -1.027797       -27.9678
  16   1.0000      -1.023331       -27.8462
  17   1.0000      -1.023330       -27.8462
  18   1.0000      -0.152212        -4.1419
  19   1.0000      -0.107735        -2.9316
  20   0.0000      -0.088121        -2.3979
  21   0.0000      -0.088119        -2.3978
  22   0.0000      -0.086224        -2.3463
  23   0.0000      -0.082057        -2.2329
  24   0.0000      -0.054495        -1.4829

                 SPIN DOWN ORBITALS
  NO   OCC          E(Eh)            E(eV)
   0   1.0000    -634.909992    -17276.7792
   1   1.0000     -85.647936     -2330.5988
   2   1.0000     -76.185925     -2073.1244
   3   1.0000     -76.181983     -2073.0171
   4   1.0000     -76.181982     -2073.0171
   5   1.0000     -13.623646      -370.7182
   6   1.0000     -10.575470      -287.7732
   7   1.0000     -10.567849      -287.5658
   8   1.0000     -10.567849      -287.5658
   9   1.0000      -5.559357      -151.2778
  10   1.0000      -5.558110      -151.2439
  11   1.0000      -5.558110      -151.2439
  12   1.0000      -5.554216      -151.1379
  13   1.0000      -5.550082      -151.0254
  14   1.0000      -1.754230       -47.7350
  15   1.0000      -1.026680       -27.9374
  16   1.0000      -1.002043       -27.2670
  17   1.0000      -1.002042       -27.2669
  18   1.0000      -0.143344        -3.9006
  19   0.0000      -0.082592        -2.2475
  20   0.0000      -0.081585        -2.2200
  21   0.0000      -0.081585        -2.2200
  22   0.0000      -0.067237        -1.8296
  23   0.0000      -0.056359        -1.5336

MULLIKEN ATOMIC CHARGES AND SPIN POPULATIONS
--------------------------------------------
   0  Y:    0.000000    1.000000
Sum of atomic charges         :    0.0000000

LOEWDIN ATOMIC CHARGES AND SPIN POPULATIONS
-------------------------------------------
   0  Y:    0.000000    1.000000

FINAL SINGLE POINT ENERGY     -3425.546071433489

DIPOLE MOMENT
-------------
                                X             Y             Z
Electronic contribution:      0.00000      -0.00000       0.00000
Nuclear contribution   :      0.00000       0.00000       0.00000
                        -----------------------------------------
Total Dipole Moment    :      0.00000      -0.00000       0.00000
                        -----------------------------------------
Magnitude (a.u.)       :      0.00000
Magnitude (Debye)      :      0.00000

Rotational constants in cm-1:     0.000000     0.000000     0.000000
Rotational constants in MHz :     0.000000     0.000000     0.000000

                             ****ORCA TERMINATED NORMALLY****
TOTAL RUN TIME: 0 days 0 hours 11 minutes 20 seconds 407 msec
