                         Program Version 5.0.1 -  RELEASE  -
|  1> !uks pbe nori verytightscf soscf notrah
|  2>
|  3> %pal
|  4>   nprocs 32
|  5> end
|  6> %coords
|  7>   charge 0
|  8>   mult 2
|  9>   units bohrs
| 10>   coords
| 11>     Y 0.0 0.0 0.0
| 12>   end
| 13> end
| 14> %basis
| 15>   gtoname "Y_sapporo-qzp-2012-diffuse.basis"
| 16>   delECP Y
| 17> end
| 18> %rel
| 19>   method zora
| 20>   modelpot 1, 0, 0, 0
| 21>   c 137.035999084
| 22> endd                         ****END OF INPUT****

CARTESIAN COORDINATES (ANGSTROEM)
---------------------------------
   Y     0.000000    0.000000    0.000000

 Total Charge           Charge          ....    0
 Multiplicity           Mult            ....    2
 Number of Electrons    NEL             ....   39
 Basis Dimension        Dim             ....  150

ORBITAL ENERGIES
----------------
                 SPIN UP ORBITALS
  NO   OCC          E(Eh)            E(eV)
   0   1.0000    -633.567359    -17240.2443
   1   1.0000     -85.384830     -2323.4394
   2   1.0000     -76.459838     -2080.5780
   3   1.0000     -76.457573     -2080.5163
   4   1.0000     -76.457573     -2080.5163
   5   1.0000     -13.535785      -368.3274
   6   1.0000     -10.592137      -288.2267
   7   1.0000     -10.584772      -288.0263
   8   1.0000     -10.584771      -288.0263
   9   1.0000      -5.567464      -151.4984
  10   1.0000      -5.565955      -151.4573
  11   1.0000      -5.565955      -151.4573
  12   1.0000      -5.560817      -151.3175
  13   1.0000      -5.560508      -151.3091
  14   1.0000      -1.755328       -47.7649
  15   1.0000      -1.031116       -28.0581
  16   1.0000      -1.026669       -27.9371
  17   1.0000      -1.026668       -27.9371
  18   1.0000      -0.151914        -4.1338
  19   1.0000      -0.109687        -2.9847
  20   0.0000      -0.089166        -2.4263
  21   0.0000      -0.089163        -2.4262
  22   0.0000      -0.087142        -2.3713
  23   0.0000      -0.082477        -2.2443
  24   0.0000      -0.056486        -1.5371

                 SPIN DOWN ORBITALS
  NO   OCC          E(Eh)            E(eV)
   0   1.0000    -633.567434    -17240.2464
   1   1.0000     -85.383239     -2323.3961
   2   1.0000     -76.459789     -2080.5766
   3   1.0000     -76.455929     -2080.4716
   4   1.0000     -76.455928     -2080.4716
   5   1.0000     -13.534789      -368.3003
   6   1.0000     -10.591176      -288.2005
   7   1.0000     -10.583652      -287.9958
   8   1.0000     -10.583651      -287.9958
   9   1.0000      -5.565907      -151.4560
  10   1.0000      -5.564693      -151.4230
  11   1.0000      -5.564693      -151.4230
  12   1.0000      -5.560868      -151.3189
  13   1.0000      -5.556757      -151.2070
  14   1.0000      -1.743389       -47.4400
  15   1.0000      -1.030081       -28.0299
  16   1.0000      -1.005518       -27.3615
  17   1.0000      -1.005515       -27.3615
  18   1.0000      -0.143267        -3.8985
  19   0.0000      -0.084094        -2.2883
  20   0.0000      -0.082990        -2.2583
  21   0.0000      -0.082989        -2.2582
  22   0.0000      -0.068914        -1.8752
  23   0.0000      -0.058788        -1.5997

MULLIKEN ATOMIC CHARGES AND SPIN POPULATIONS
--------------------------------------------
   0  Y:   -0.000000    1.000000
Sum of atomic charges         :   -0.0000000

LOEWDIN ATOMIC CHARGES AND SPIN POPULATIONS
-------------------------------------------
   0  Y:   -0.000000    1.000000

FINAL SINGLE POINT ENERGY     -3416.897303330379

DIPOLE MOMENT
-------------
                                X             Y             Z
Electronic contribution:      0.00000       0.00000       0.00000
Nuclear contribution   :      0.00000       0.00000       0.00000
                        -----------------------------------------
Total Dipole Moment    :      0.00000       0.00000       0.00000
                        -----------------------------------------
Magnitude (a.u.)       :      0.00000
Magnitude (Debye)      :      0.00000

Rotational constants in cm-1:     0.000000     0.000000     0.000000
Rotational constants in MHz :     0.000000     0.000000     0.000000

                             ****ORCA TERMINATED NORMALLY****
TOTAL RUN TIME: 0 days 0 hours 6 minutes 19 seconds 823 msec
