                         Program Version 5.0.1 -  RELEASE  -
|  1> !uks pbe nori verytightscf soscf notrah
|  2>
|  3> %pal
|  4>   nprocs 32
|  5> end
|  6> %coords
|  7>   charge 0
|  8>   mult 3
|  9>   units bohrs
| 10>   coords
| 11>     Zr 0.0 0.0 0.0
| 12>   end
| 13> end
| 14> %basis
| 15>   gtoname "Zr_ano-r3.basis"
| 16>   delECP Zr
| 17> end
| 18> %rel
| 19>   method zora
| 20>   modelpot 1, 0, 0, 0
| 21>   c 137.035999084
| 22> endd                         ****END OF INPUT****

CARTESIAN COORDINATES (ANGSTROEM)
---------------------------------
  Zr     0.000000    0.000000    0.000000

 Total Charge           Charge          ....    0
 Multiplicity           Mult            ....    3
 Number of Electrons    NEL             ....   40
 Basis Dimension        Dim             ....  101

ORBITAL ENERGIES
----------------
                 SPIN UP ORBITALS
  NO   OCC          E(Eh)            E(eV)
   0   1.0000    -669.740214    -18224.5577
   1   1.0000     -91.365754     -2486.1886
   2   1.0000     -81.662479     -2222.1490
   3   1.0000     -81.660710     -2222.1009
   4   1.0000     -81.660709     -2222.1009
   5   1.0000     -14.900689      -405.4683
   6   1.0000     -11.720372      -318.9275
   7   1.0000     -11.712865      -318.7233
   8   1.0000     -11.712864      -318.7232
   9   1.0000      -6.428083      -174.9170
  10   1.0000      -6.427306      -174.8959
  11   1.0000      -6.427306      -174.8959
  12   1.0000      -6.421593      -174.7404
  13   1.0000      -6.421593      -174.7404
  14   1.0000      -1.988541       -54.1110
  15   1.0000      -1.183620       -32.2079
  16   1.0000      -1.183618       -32.2079
  17   1.0000      -1.183508       -32.2049
  18   1.0000      -0.165507        -4.5037
  19   1.0000      -0.142693        -3.8829
  20   1.0000      -0.142688        -3.8827
  21   0.0000      -0.116886        -3.1806
  22   0.0000      -0.116855        -3.1798
  23   0.0000      -0.111262        -3.0276
  24   0.0000      -0.017506        -0.4764
  25   0.0000      -0.017502        -0.4763

                 SPIN DOWN ORBITALS
  NO   OCC          E(Eh)            E(eV)
   0   1.0000    -669.740367    -18224.5619
   1   1.0000     -91.361556     -2486.0743
   2   1.0000     -81.660990     -2222.1085
   3   1.0000     -81.656872     -2221.9965
   4   1.0000     -81.656871     -2221.9964
   5   1.0000     -14.898211      -405.4009
   6   1.0000     -11.717322      -318.8445
   7   1.0000     -11.710323      -318.6541
   8   1.0000     -11.710322      -318.6541
   9   1.0000      -6.425147      -174.8371
  10   1.0000      -6.423514      -174.7927
  11   1.0000      -6.423513      -174.7927
  12   1.0000      -6.416655      -174.6061
  13   1.0000      -6.416654      -174.6060
  14   1.0000      -1.959251       -53.3139
  15   1.0000      -1.165012       -31.7016
  16   1.0000      -1.141589       -31.0642
  17   1.0000      -1.141582       -31.0640
  18   1.0000      -0.147129        -4.0036
  19   0.0000      -0.100460        -2.7337
  20   0.0000      -0.097328        -2.6484
  21   0.0000      -0.097319        -2.6482
  22   0.0000      -0.070091        -1.9073
  23   0.0000      -0.070089        -1.9072

MULLIKEN ATOMIC CHARGES AND SPIN POPULATIONS
--------------------------------------------
   0 Zr:    0.000000    2.000000
Sum of atomic charges         :    0.0000000

LOEWDIN ATOMIC CHARGES AND SPIN POPULATIONS
-------------------------------------------
   0 Zr:    0.000000    2.000000

FINAL SINGLE POINT ENERGY     -3638.346608703219

DIPOLE MOMENT
-------------
                                X             Y             Z
Electronic contribution:      0.00000      -0.00000      -0.00000
Nuclear contribution   :      0.00000       0.00000       0.00000
                        -----------------------------------------
Total Dipole Moment    :      0.00000      -0.00000      -0.00000
                        -----------------------------------------
Magnitude (a.u.)       :      0.00000
Magnitude (Debye)      :      0.00000

Rotational constants in cm-1:     0.000000     0.000000     0.000000
Rotational constants in MHz :     0.000000     0.000000     0.000000

                             ****ORCA TERMINATED NORMALLY****
TOTAL RUN TIME: 0 days 2 hours 23 minutes 56 seconds 60 msec
