                         Program Version 5.0.1 -  RELEASE  -
|  1> !uks pbe nori verytightscf soscf notrah
|  2>
|  3> %pal
|  4>   nprocs 32
|  5> end
|  6> %coords
|  7>   charge 0
|  8>   mult 3
|  9>   units bohrs
| 10>   coords
| 11>     Zr 0.0 0.0 0.0
| 12>   end
| 13> end
| 14> %basis
| 15>   gtoname "Zr_sarc-zora-tzvpp.basis"
| 16>   delECP Zr
| 17> end
| 18> %rel
| 19>   method zora
| 20>   modelpot 1, 0, 0, 0
| 21>   c 137.035999084
| 22> endd                         ****END OF INPUT****

CARTESIAN COORDINATES (ANGSTROEM)
---------------------------------
  Zr     0.000000    0.000000    0.000000

 Total Charge           Charge          ....    0
 Multiplicity           Mult            ....    3
 Number of Electrons    NEL             ....   40
 Basis Dimension        Dim             ....   98

ORBITAL ENERGIES
----------------
                 SPIN UP ORBITALS
  NO   OCC          E(Eh)            E(eV)
   0   1.0000    -671.773232    -18279.8790
   1   1.0000     -91.530806     -2490.6798
   2   1.0000     -81.547027     -2219.0074
   3   1.0000     -81.545085     -2218.9546
   4   1.0000     -81.545084     -2218.9546
   5   1.0000     -14.930999      -406.2931
   6   1.0000     -11.702580      -318.4434
   7   1.0000     -11.694798      -318.2316
   8   1.0000     -11.694795      -318.2315
   9   1.0000      -6.408608      -174.3871
  10   1.0000      -6.407705      -174.3625
  11   1.0000      -6.407702      -174.3624
  12   1.0000      -6.401833      -174.2027
  13   1.0000      -6.401833      -174.2027
  14   1.0000      -1.995981       -54.3134
  15   1.0000      -1.183845       -32.2141
  16   1.0000      -1.183365       -32.2010
  17   1.0000      -1.183360       -32.2009
  18   1.0000      -0.165664        -4.5080
  19   1.0000      -0.141471        -3.8496
  20   1.0000      -0.141463        -3.8494
  21   0.0000      -0.116921        -3.1816
  22   0.0000      -0.116895        -3.1809
  23   0.0000      -0.111728        -3.0403
  24   0.0000      -0.055876        -1.5205
  25   0.0000      -0.055873        -1.5204

                 SPIN DOWN ORBITALS
  NO   OCC          E(Eh)            E(eV)
   0   1.0000    -671.773387    -18279.8832
   1   1.0000     -91.526453     -2490.5614
   2   1.0000     -81.545435     -2218.9641
   3   1.0000     -81.541133     -2218.8470
   4   1.0000     -81.541131     -2218.8470
   5   1.0000     -14.928370      -406.2216
   6   1.0000     -11.699397      -318.3568
   7   1.0000     -11.692072      -318.1575
   8   1.0000     -11.692069      -318.1574
   9   1.0000      -6.405463      -174.3015
  10   1.0000      -6.403715      -174.2540
  11   1.0000      -6.403714      -174.2539
  12   1.0000      -6.396644      -174.0615
  13   1.0000      -6.396643      -174.0615
  14   1.0000      -1.966667       -53.5157
  15   1.0000      -1.165121       -31.7046
  16   1.0000      -1.141126       -31.0516
  17   1.0000      -1.141114       -31.0513
  18   1.0000      -0.147101        -4.0028
  19   0.0000      -0.099610        -2.7105
  20   0.0000      -0.096820        -2.6346
  21   0.0000      -0.096809        -2.6343
  22   0.0000      -0.070016        -1.9052
  23   0.0000      -0.070013        -1.9052

MULLIKEN ATOMIC CHARGES AND SPIN POPULATIONS
--------------------------------------------
   0 Zr:   -0.000000    2.000000
Sum of atomic charges         :   -0.0000000

LOEWDIN ATOMIC CHARGES AND SPIN POPULATIONS
-------------------------------------------
   0 Zr:    0.000000    2.000000

FINAL SINGLE POINT ENERGY     -3643.458434659337

DIPOLE MOMENT
-------------
                                X             Y             Z
Electronic contribution:      0.00000       0.00000       0.00000
Nuclear contribution   :      0.00000       0.00000       0.00000
                        -----------------------------------------
Total Dipole Moment    :      0.00000       0.00000       0.00000
                        -----------------------------------------
Magnitude (a.u.)       :      0.00000
Magnitude (Debye)      :      0.00000

Rotational constants in cm-1:     0.000000     0.000000     0.000000
Rotational constants in MHz :     0.000000     0.000000     0.000000

                             ****ORCA TERMINATED NORMALLY****
TOTAL RUN TIME: 0 days 0 hours 19 minutes 27 seconds 256 msec
