                         Program Version 5.0.1 -  RELEASE  -
|  1> !uks pbe nori verytightscf soscf notrah
|  2>
|  3> %pal
|  4>   nprocs 32
|  5> end
|  6> %coords
|  7>   charge 0
|  8>   mult 3
|  9>   units bohrs
| 10>   coords
| 11>     Zr 0.0 0.0 0.0
| 12>   end
| 13> end
| 14> %basis
| 15>   gtoname "Zr_sapporo-qzp-2012-diffuse.basis"
| 16>   delECP Zr
| 17> end
| 18> %rel
| 19>   method zora
| 20>   modelpot 1, 0, 0, 0
| 21>   c 137.035999084
| 22> endd                         ****END OF INPUT****

CARTESIAN COORDINATES (ANGSTROEM)
---------------------------------
  Zr     0.000000    0.000000    0.000000

 Total Charge           Charge          ....    0
 Multiplicity           Mult            ....    3
 Number of Electrons    NEL             ....   40
 Basis Dimension        Dim             ....  150

ORBITAL ENERGIES
----------------
                 SPIN UP ORBITALS
  NO   OCC          E(Eh)            E(eV)
   0   1.0000    -670.056092    -18233.1532
   1   1.0000     -91.191807     -2481.4552
   2   1.0000     -81.830741     -2226.7277
   3   1.0000     -81.828929     -2226.6784
   4   1.0000     -81.828927     -2226.6783
   5   1.0000     -14.820748      -403.2931
   6   1.0000     -11.714098      -318.7568
   7   1.0000     -11.706463      -318.5491
   8   1.0000     -11.706457      -318.5489
   9   1.0000      -6.411055      -174.4537
  10   1.0000      -6.410292      -174.4329
  11   1.0000      -6.410288      -174.4328
  12   1.0000      -6.404486      -174.2749
  13   1.0000      -6.404486      -174.2749
  14   1.0000      -1.979774       -53.8724
  15   1.0000      -1.184718       -32.2378
  16   1.0000      -1.184709       -32.2376
  17   1.0000      -1.184539       -32.2329
  18   1.0000      -0.164591        -4.4787
  19   1.0000      -0.142405        -3.8750
  20   1.0000      -0.142398        -3.8748
  21   0.0000      -0.116666        -3.1746
  22   0.0000      -0.116656        -3.1744
  23   0.0000      -0.110868        -3.0169
  24   0.0000      -0.057711        -1.5704
  25   0.0000      -0.057709        -1.5703

                 SPIN DOWN ORBITALS
  NO   OCC          E(Eh)            E(eV)
   0   1.0000    -670.056209    -18233.1564
   1   1.0000     -91.187442     -2481.3365
   2   1.0000     -81.829260     -2226.6874
   3   1.0000     -81.825026     -2226.5722
   4   1.0000     -81.825023     -2226.5721
   5   1.0000     -14.818120      -403.2216
   6   1.0000     -11.710853      -318.6685
   7   1.0000     -11.703775      -318.4759
   8   1.0000     -11.703768      -318.4757
   9   1.0000      -6.407979      -174.3700
  10   1.0000      -6.406351      -174.3257
  11   1.0000      -6.406347      -174.3256
  12   1.0000      -6.399392      -174.1363
  13   1.0000      -6.399391      -174.1363
  14   1.0000      -1.950563       -53.0775
  15   1.0000      -1.166321       -31.7372
  16   1.0000      -1.142759       -31.0960
  17   1.0000      -1.142737       -31.0955
  18   1.0000      -0.146428        -3.9845
  19   0.0000      -0.100230        -2.7274
  20   0.0000      -0.097292        -2.6475
  21   0.0000      -0.097282        -2.6472
  22   0.0000      -0.070025        -1.9055
  23   0.0000      -0.070021        -1.9054

MULLIKEN ATOMIC CHARGES AND SPIN POPULATIONS
--------------------------------------------
   0 Zr:    0.000000    2.000000
Sum of atomic charges         :    0.0000000

LOEWDIN ATOMIC CHARGES AND SPIN POPULATIONS
-------------------------------------------
   0 Zr:   -0.000000    2.000000

FINAL SINGLE POINT ENERGY     -3633.414520556960

DIPOLE MOMENT
-------------
                                X             Y             Z
Electronic contribution:      0.00000      -0.00000      -0.00000
Nuclear contribution   :      0.00000       0.00000       0.00000
                        -----------------------------------------
Total Dipole Moment    :      0.00000      -0.00000      -0.00000
                        -----------------------------------------
Magnitude (a.u.)       :      0.00000
Magnitude (Debye)      :      0.00000

Rotational constants in cm-1:     0.000000     0.000000     0.000000
Rotational constants in MHz :     0.000000     0.000000     0.000000

                             ****ORCA TERMINATED NORMALLY****
TOTAL RUN TIME: 0 days 0 hours 8 minutes 7 seconds 680 msec
