                         Program Version 5.0.1 -  RELEASE  -
|  1> !uks pbe nori verytightscf nososcf notrah
|  2>
|  3> %pal
|  4>   nprocs 32
|  5> end
|  6> %coords
|  7>   charge 0
|  8>   mult 3
|  9>   units bohrs
| 10>   coords
| 11>     Zr 0.0 0.0 0.0
| 12>   end
| 13> end
| 14> %basis
| 15>   gtoname "Zr_ugbs.basis"
| 16>   delECP Zr
| 17> end
| 18> %rel
| 19>   method zora
| 20>   modelpot 1, 0, 0, 0
| 21>   c 137.035999084
| 22> end
| 23>
| 24>                          ****END OF INPUT****

CARTESIAN COORDINATES (ANGSTROEM)
---------------------------------
  Zr     0.000000    0.000000    0.000000

 Total Charge           Charge          ....    0
 Multiplicity           Mult            ....    3
 Number of Electrons    NEL             ....   40
 Basis Dimension        Dim             ....  186

ORBITAL ENERGIES
----------------
                 SPIN UP ORBITALS
  NO   OCC          E(Eh)            E(eV)
   0   1.0000    -671.738040    -18278.9213
   1   1.0000     -91.487480     -2489.5009
   2   1.0000     -81.497040     -2217.6472
   3   1.0000     -81.496913     -2217.6437
   4   1.0000     -81.495590     -2217.6078
   5   1.0000     -14.933768      -406.3685
   6   1.0000     -11.703831      -318.4774
   7   1.0000     -11.702729      -318.4474
   8   1.0000     -11.698262      -318.3259
   9   1.0000      -6.412767      -174.5003
  10   1.0000      -6.412709      -174.4987
  11   1.0000      -6.410046      -174.4262
  12   1.0000      -6.408589      -174.3866
  13   1.0000      -6.407881      -174.3673
  14   1.0000      -2.009159       -54.6720
  15   1.0000      -1.199779       -32.6476
  16   1.0000      -1.196125       -32.5482
  17   1.0000      -1.193564       -32.4785
  18   1.0000      -0.168996        -4.5986
  19   1.0000      -0.153383        -4.1738
  20   1.0000      -0.147529        -4.0145
  21   0.0000      -0.130132        -3.5411
  22   0.0000      -0.128605        -3.4995
  23   0.0000      -0.121685        -3.3112
  24   0.0000      -0.045921        -1.2496
  25   0.0000      -0.044766        -1.2181

                 SPIN DOWN ORBITALS
  NO   OCC          E(Eh)            E(eV)
   0   1.0000    -671.738226    -18278.9264
   1   1.0000     -91.482474     -2489.3647
   2   1.0000     -81.493957     -2217.5633
   3   1.0000     -81.493378     -2217.5475
   4   1.0000     -81.491244     -2217.4895
   5   1.0000     -14.931039      -406.2942
   6   1.0000     -11.700209      -318.3789
   7   1.0000     -11.700015      -318.3736
   8   1.0000     -11.695580      -318.2529
   9   1.0000      -6.409527      -174.4121
  10   1.0000      -6.407991      -174.3703
  11   1.0000      -6.407266      -174.3506
  12   1.0000      -6.402323      -174.2161
  13   1.0000      -6.401576      -174.1957
  14   1.0000      -1.977806       -53.8188
  15   1.0000      -1.165019       -31.7018
  16   1.0000      -1.163334       -31.6559
  17   1.0000      -1.151500       -31.3339
  18   1.0000      -0.147388        -4.0106
  19   0.0000      -0.111266        -3.0277
  20   0.0000      -0.106641        -2.9019
  21   0.0000      -0.098870        -2.6904
  22   0.0000      -0.085784        -2.3343
  23   0.0000      -0.082780        -2.2526

MULLIKEN ATOMIC CHARGES AND SPIN POPULATIONS
--------------------------------------------
   0 Zr:   -0.000000    2.000000
Sum of atomic charges         :   -0.0000000

LOEWDIN ATOMIC CHARGES AND SPIN POPULATIONS
-------------------------------------------
   0 Zr:   -0.000000    2.000000

FINAL SINGLE POINT ENERGY     -3643.617530339066

DIPOLE MOMENT
-------------
                                X             Y             Z
Electronic contribution:     -0.00000      -0.00000      -0.00000
Nuclear contribution   :      0.00000       0.00000       0.00000
                        -----------------------------------------
Total Dipole Moment    :     -0.00000      -0.00000      -0.00000
                        -----------------------------------------
Magnitude (a.u.)       :      0.00000
Magnitude (Debye)      :      0.00001

Rotational constants in cm-1:     0.000000     0.000000     0.000000
Rotational constants in MHz :     0.000000     0.000000     0.000000

                             ****ORCA TERMINATED NORMALLY****
TOTAL RUN TIME: 0 days 0 hours 1 minutes 4 seconds 786 msec
