                         Program Version 5.0.1 -  RELEASE  -
|  1> !uks pbe nori verytightscf soscf
|  2>
|  3> %pal
|  4>   nprocs 32
|  5> end
|  6> %coords
|  7>   charge 0
|  8>   mult 2
|  9>   units bohrs
| 10>   coords
| 11>     Ag 0.0 0.0 0.0
| 12>   end
| 13> end
| 14> %basis
| 15>   gtoname "/cluster/home/ambr/projects/zora/row5/calcs_gto/Ag_ano-r3.basis"
| 16>   delECP Ag
| 17> end
| 18> %plots
| 19>   format gaussian_cube
| 20>   dim1 120
| 21>   dim2 120
| 22>   dim3 120
| 23>   MO("Ag_ano-r3_pbe_phi_a_scf_0_re.cube",0,0);
| 24>   MO("Ag_ano-r3_pbe_phi_a_scf_1_re.cube",1,0);
| 25>   MO("Ag_ano-r3_pbe_phi_a_scf_2_re.cube",2,0);
| 26>   MO("Ag_ano-r3_pbe_phi_a_scf_3_re.cube",3,0);
| 27>   MO("Ag_ano-r3_pbe_phi_a_scf_4_re.cube",4,0);
| 28>   MO("Ag_ano-r3_pbe_phi_a_scf_5_re.cube",5,0);
| 29>   MO("Ag_ano-r3_pbe_phi_a_scf_6_re.cube",6,0);
| 30>   MO("Ag_ano-r3_pbe_phi_a_scf_7_re.cube",7,0);
| 31>   MO("Ag_ano-r3_pbe_phi_a_scf_8_re.cube",8,0);
| 32>   MO("Ag_ano-r3_pbe_phi_a_scf_9_re.cube",9,0);
| 33>   MO("Ag_ano-r3_pbe_phi_a_scf_10_re.cube",10,0);
| 34>   MO("Ag_ano-r3_pbe_phi_a_scf_11_re.cube",11,0);
| 35>   MO("Ag_ano-r3_pbe_phi_a_scf_12_re.cube",12,0);
| 36>   MO("Ag_ano-r3_pbe_phi_a_scf_13_re.cube",13,0);
| 37>   MO("Ag_ano-r3_pbe_phi_a_scf_14_re.cube",14,0);
| 38>   MO("Ag_ano-r3_pbe_phi_a_scf_15_re.cube",15,0);
| 39>   MO("Ag_ano-r3_pbe_phi_a_scf_16_re.cube",16,0);
| 40>   MO("Ag_ano-r3_pbe_phi_a_scf_17_re.cube",17,0);
| 41>   MO("Ag_ano-r3_pbe_phi_a_scf_18_re.cube",18,0);
| 42>   MO("Ag_ano-r3_pbe_phi_a_scf_19_re.cube",19,0);
| 43>   MO("Ag_ano-r3_pbe_phi_a_scf_20_re.cube",20,0);
| 44>   MO("Ag_ano-r3_pbe_phi_a_scf_21_re.cube",21,0);
| 45>   MO("Ag_ano-r3_pbe_phi_a_scf_22_re.cube",22,0);
| 46>   MO("Ag_ano-r3_pbe_phi_a_scf_23_re.cube",23,0);
| 47>   MO("Ag_ano-r3_pbe_phi_b_scf_0_re.cube",0,1);
| 48>   MO("Ag_ano-r3_pbe_phi_b_scf_1_re.cube",1,1);
| 49>   MO("Ag_ano-r3_pbe_phi_b_scf_2_re.cube",2,1);
| 50>   MO("Ag_ano-r3_pbe_phi_b_scf_3_re.cube",3,1);
| 51>   MO("Ag_ano-r3_pbe_phi_b_scf_4_re.cube",4,1);
| 52>   MO("Ag_ano-r3_pbe_phi_b_scf_5_re.cube",5,1);
| 53>   MO("Ag_ano-r3_pbe_phi_b_scf_6_re.cube",6,1);
| 54>   MO("Ag_ano-r3_pbe_phi_b_scf_7_re.cube",7,1);
| 55>   MO("Ag_ano-r3_pbe_phi_b_scf_8_re.cube",8,1);
| 56>   MO("Ag_ano-r3_pbe_phi_b_scf_9_re.cube",9,1);
| 57>   MO("Ag_ano-r3_pbe_phi_b_scf_10_re.cube",10,1);
| 58>   MO("Ag_ano-r3_pbe_phi_b_scf_11_re.cube",11,1);
| 59>   MO("Ag_ano-r3_pbe_phi_b_scf_12_re.cube",12,1);
| 60>   MO("Ag_ano-r3_pbe_phi_b_scf_13_re.cube",13,1);
| 61>   MO("Ag_ano-r3_pbe_phi_b_scf_14_re.cube",14,1);
| 62>   MO("Ag_ano-r3_pbe_phi_b_scf_15_re.cube",15,1);
| 63>   MO("Ag_ano-r3_pbe_phi_b_scf_16_re.cube",16,1);
| 64>   MO("Ag_ano-r3_pbe_phi_b_scf_17_re.cube",17,1);
| 65>   MO("Ag_ano-r3_pbe_phi_b_scf_18_re.cube",18,1);
| 66>   MO("Ag_ano-r3_pbe_phi_b_scf_19_re.cube",19,1);
| 67>   MO("Ag_ano-r3_pbe_phi_b_scf_20_re.cube",20,1);
| 68>   MO("Ag_ano-r3_pbe_phi_b_scf_21_re.cube",21,1);
| 69>   MO("Ag_ano-r3_pbe_phi_b_scf_22_re.cube",22,1);
| 70> endd                         ****END OF INPUT****

CARTESIAN COORDINATES (ANGSTROEM)
---------------------------------
  Ag     0.000000    0.000000    0.000000

 Total Charge           Charge          ....    0
 Multiplicity           Mult            ....    2
 Number of Electrons    NEL             ....   47
 Basis Dimension        Dim             ....  101

ORBITAL ENERGIES
----------------
                 SPIN UP ORBITALS
  NO   OCC          E(Eh)            E(eV)
   0   1.0000    -858.736383    -23367.4050
   1   1.0000    -122.808493     -3341.7890
   2   1.0000    -120.080356     -3267.5526
   3   1.0000    -120.080356     -3267.5526
   4   1.0000    -120.080356     -3267.5526
   5   1.0000     -22.143573      -602.5573
   6   1.0000     -20.023865      -544.8771
   7   1.0000     -20.023865      -544.8771
   8   1.0000     -20.023865      -544.8771
   9   1.0000     -13.444409      -365.8410
  10   1.0000     -13.444409      -365.8410
  11   1.0000     -13.444409      -365.8410
  12   1.0000     -13.444409      -365.8410
  13   1.0000     -13.444409      -365.8410
  14   1.0000      -2.918302       -79.4110
  15   1.0000      -2.080088       -56.6021
  16   1.0000      -2.080088       -56.6021
  17   1.0000      -2.080088       -56.6021
  18   1.0000      -0.304694        -8.2911
  19   1.0000      -0.304694        -8.2911
  20   1.0000      -0.304694        -8.2911
  21   1.0000      -0.304694        -8.2911
  22   1.0000      -0.304694        -8.2911
  23   1.0000      -0.143475        -3.9041
  24   0.0000       0.066377         1.8062
  25   0.0000       0.066377         1.8062
  26   0.0000       0.066377         1.8062
  27   0.0000       0.115651         3.1470
  28   0.0000       0.403330        10.9752

                 SPIN DOWN ORBITALS
  NO   OCC          E(Eh)            E(eV)
   0   1.0000    -858.735436    -23367.3792
   1   1.0000    -122.808515     -3341.7896
   2   1.0000    -120.080283     -3267.5506
   3   1.0000    -120.080283     -3267.5506
   4   1.0000    -120.080283     -3267.5506
   5   1.0000     -22.143253      -602.5485
   6   1.0000     -20.023621      -544.8704
   7   1.0000     -20.023621      -544.8704
   8   1.0000     -20.023621      -544.8704
   9   1.0000     -13.444364      -365.8397
  10   1.0000     -13.444364      -365.8397
  11   1.0000     -13.444364      -365.8397
  12   1.0000     -13.444364      -365.8397
  13   1.0000     -13.444364      -365.8397
  14   1.0000      -2.918402       -79.4137
  15   1.0000      -2.079769       -56.5934
  16   1.0000      -2.079769       -56.5934
  17   1.0000      -2.079769       -56.5934
  18   1.0000      -0.299016        -8.1366
  19   1.0000      -0.299016        -8.1366
  20   1.0000      -0.299016        -8.1366
  21   1.0000      -0.299016        -8.1366
  22   1.0000      -0.299016        -8.1366
  23   0.0000      -0.114605        -3.1186
  24   0.0000       0.094844         2.5808
  25   0.0000       0.094844         2.5808
  26   0.0000       0.094844         2.5808
  27   0.0000       0.145952         3.9716

MULLIKEN ATOMIC CHARGES AND SPIN POPULATIONS
--------------------------------------------
   0 Ag:    0.000000    1.000000
Sum of atomic charges         :    0.0000000

LOEWDIN ATOMIC CHARGES AND SPIN POPULATIONS
-------------------------------------------
   0 Ag:   -0.000000    1.000000

FINAL SINGLE POINT ENERGY     -5101.539672477110

DIPOLE MOMENT
-------------
                                X             Y             Z
Electronic contribution:     -0.00000      -0.00000       0.00000
Nuclear contribution   :      0.00000       0.00000       0.00000
                        -----------------------------------------
Total Dipole Moment    :     -0.00000      -0.00000       0.00000
                        -----------------------------------------
Magnitude (a.u.)       :      0.00000
Magnitude (Debye)      :      0.00000

Rotational constants in cm-1:     0.000000     0.000000     0.000000
Rotational constants in MHz :     0.000000     0.000000     0.000000

                             ****ORCA TERMINATED NORMALLY****
TOTAL RUN TIME: 0 days 0 hours 17 minutes 52 seconds 176 msec
