                         Program Version 5.0.1 -  RELEASE  -
|  1> !uks pbe nori verytightscf soscf
|  2>
|  3> %pal
|  4>   nprocs 32
|  5> end
|  6> %coords
|  7>   charge 0
|  8>   mult 1
|  9>   units bohrs
| 10>   coords
| 11>     Cd 0.0 0.0 0.0
| 12>   end
| 13> end
| 14> %basis
| 15>   gtoname "/cluster/home/ambr/projects/zora/row5/calcs_gto/Cd_ano-r3.basis"
| 16>   delECP Cd
| 17> end
| 18> %plots
| 19>   format gaussian_cube
| 20>   dim1 120
| 21>   dim2 120
| 22>   dim3 120
| 23>   MO("Cd_ano-r3_pbe_phi_a_scf_0_re.cube",0,0);
| 24>   MO("Cd_ano-r3_pbe_phi_a_scf_1_re.cube",1,0);
| 25>   MO("Cd_ano-r3_pbe_phi_a_scf_2_re.cube",2,0);
| 26>   MO("Cd_ano-r3_pbe_phi_a_scf_3_re.cube",3,0);
| 27>   MO("Cd_ano-r3_pbe_phi_a_scf_4_re.cube",4,0);
| 28>   MO("Cd_ano-r3_pbe_phi_a_scf_5_re.cube",5,0);
| 29>   MO("Cd_ano-r3_pbe_phi_a_scf_6_re.cube",6,0);
| 30>   MO("Cd_ano-r3_pbe_phi_a_scf_7_re.cube",7,0);
| 31>   MO("Cd_ano-r3_pbe_phi_a_scf_8_re.cube",8,0);
| 32>   MO("Cd_ano-r3_pbe_phi_a_scf_9_re.cube",9,0);
| 33>   MO("Cd_ano-r3_pbe_phi_a_scf_10_re.cube",10,0);
| 34>   MO("Cd_ano-r3_pbe_phi_a_scf_11_re.cube",11,0);
| 35>   MO("Cd_ano-r3_pbe_phi_a_scf_12_re.cube",12,0);
| 36>   MO("Cd_ano-r3_pbe_phi_a_scf_13_re.cube",13,0);
| 37>   MO("Cd_ano-r3_pbe_phi_a_scf_14_re.cube",14,0);
| 38>   MO("Cd_ano-r3_pbe_phi_a_scf_15_re.cube",15,0);
| 39>   MO("Cd_ano-r3_pbe_phi_a_scf_16_re.cube",16,0);
| 40>   MO("Cd_ano-r3_pbe_phi_a_scf_17_re.cube",17,0);
| 41>   MO("Cd_ano-r3_pbe_phi_a_scf_18_re.cube",18,0);
| 42>   MO("Cd_ano-r3_pbe_phi_a_scf_19_re.cube",19,0);
| 43>   MO("Cd_ano-r3_pbe_phi_a_scf_20_re.cube",20,0);
| 44>   MO("Cd_ano-r3_pbe_phi_a_scf_21_re.cube",21,0);
| 45>   MO("Cd_ano-r3_pbe_phi_a_scf_22_re.cube",22,0);
| 46>   MO("Cd_ano-r3_pbe_phi_a_scf_23_re.cube",23,0);
| 47>   MO("Cd_ano-r3_pbe_phi_b_scf_0_re.cube",0,1);
| 48>   MO("Cd_ano-r3_pbe_phi_b_scf_1_re.cube",1,1);
| 49>   MO("Cd_ano-r3_pbe_phi_b_scf_2_re.cube",2,1);
| 50>   MO("Cd_ano-r3_pbe_phi_b_scf_3_re.cube",3,1);
| 51>   MO("Cd_ano-r3_pbe_phi_b_scf_4_re.cube",4,1);
| 52>   MO("Cd_ano-r3_pbe_phi_b_scf_5_re.cube",5,1);
| 53>   MO("Cd_ano-r3_pbe_phi_b_scf_6_re.cube",6,1);
| 54>   MO("Cd_ano-r3_pbe_phi_b_scf_7_re.cube",7,1);
| 55>   MO("Cd_ano-r3_pbe_phi_b_scf_8_re.cube",8,1);
| 56>   MO("Cd_ano-r3_pbe_phi_b_scf_9_re.cube",9,1);
| 57>   MO("Cd_ano-r3_pbe_phi_b_scf_10_re.cube",10,1);
| 58>   MO("Cd_ano-r3_pbe_phi_b_scf_11_re.cube",11,1);
| 59>   MO("Cd_ano-r3_pbe_phi_b_scf_12_re.cube",12,1);
| 60>   MO("Cd_ano-r3_pbe_phi_b_scf_13_re.cube",13,1);
| 61>   MO("Cd_ano-r3_pbe_phi_b_scf_14_re.cube",14,1);
| 62>   MO("Cd_ano-r3_pbe_phi_b_scf_15_re.cube",15,1);
| 63>   MO("Cd_ano-r3_pbe_phi_b_scf_16_re.cube",16,1);
| 64>   MO("Cd_ano-r3_pbe_phi_b_scf_17_re.cube",17,1);
| 65>   MO("Cd_ano-r3_pbe_phi_b_scf_18_re.cube",18,1);
| 66>   MO("Cd_ano-r3_pbe_phi_b_scf_19_re.cube",19,1);
| 67>   MO("Cd_ano-r3_pbe_phi_b_scf_20_re.cube",20,1);
| 68>   MO("Cd_ano-r3_pbe_phi_b_scf_21_re.cube",21,1);
| 69>   MO("Cd_ano-r3_pbe_phi_b_scf_22_re.cube",22,1);
| 70>   MO("Cd_ano-r3_pbe_phi_b_scf_23_re.cube",23,1);
| 71> endd                         ****END OF INPUT****

CARTESIAN COORDINATES (ANGSTROEM)
---------------------------------
  Cd     0.000000    0.000000    0.000000

 Total Charge           Charge          ....    0
 Multiplicity           Mult            ....    1
 Number of Electrons    NEL             ....   48
 Basis Dimension        Dim             ....  101

ORBITAL ENERGIES
----------------
                 SPIN UP ORBITALS
  NO   OCC          E(Eh)            E(eV)
   0   1.0000    -894.220318    -24332.9719
   1   1.0000    -128.609636     -3499.6461
   2   1.0000    -126.588119     -3444.6378
   3   1.0000    -126.588119     -3444.6378
   4   1.0000    -126.588119     -3444.6378
   5   1.0000     -23.525670      -640.1660
   6   1.0000     -21.570699      -586.9686
   7   1.0000     -21.570699      -586.9686
   8   1.0000     -21.570699      -586.9686
   9   1.0000     -14.761714      -401.6867
  10   1.0000     -14.761714      -401.6867
  11   1.0000     -14.761714      -401.6867
  12   1.0000     -14.761714      -401.6867
  13   1.0000     -14.761714      -401.6867
  14   1.0000      -3.243390       -88.2571
  15   1.0000      -2.415900       -65.7400
  16   1.0000      -2.415900       -65.7400
  17   1.0000      -2.415900       -65.7400
  18   1.0000      -0.504031       -13.7154
  19   1.0000      -0.504031       -13.7154
  20   1.0000      -0.504031       -13.7154
  21   1.0000      -0.504031       -13.7154
  22   1.0000      -0.504031       -13.7154
  23   1.0000      -0.181425        -4.9368
  24   0.0000       0.043045         1.1713
  25   0.0000       0.043045         1.1713
  26   0.0000       0.043045         1.1713
  27   0.0000       0.112014         3.0481
  28   0.0000       0.332814         9.0563

                 SPIN DOWN ORBITALS
  NO   OCC          E(Eh)            E(eV)
   0   1.0000    -894.220318    -24332.9719
   1   1.0000    -128.609636     -3499.6461
   2   1.0000    -126.588119     -3444.6378
   3   1.0000    -126.588119     -3444.6378
   4   1.0000    -126.588119     -3444.6378
   5   1.0000     -23.525670      -640.1660
   6   1.0000     -21.570699      -586.9686
   7   1.0000     -21.570699      -586.9686
   8   1.0000     -21.570699      -586.9686
   9   1.0000     -14.761714      -401.6867
  10   1.0000     -14.761714      -401.6867
  11   1.0000     -14.761714      -401.6867
  12   1.0000     -14.761714      -401.6867
  13   1.0000     -14.761714      -401.6867
  14   1.0000      -3.243390       -88.2571
  15   1.0000      -2.415900       -65.7400
  16   1.0000      -2.415900       -65.7400
  17   1.0000      -2.415900       -65.7400
  18   1.0000      -0.504031       -13.7154
  19   1.0000      -0.504031       -13.7154
  20   1.0000      -0.504031       -13.7154
  21   1.0000      -0.504031       -13.7154
  22   1.0000      -0.504031       -13.7154
  23   1.0000      -0.181425        -4.9368
  24   0.0000       0.043045         1.1713
  25   0.0000       0.043045         1.1713
  26   0.0000       0.043045         1.1713
  27   0.0000       0.112014         3.0481
  28   0.0000       0.332814         9.0563

MULLIKEN ATOMIC CHARGES AND SPIN POPULATIONS
--------------------------------------------
   0 Cd:   -0.000000    0.000000
Sum of atomic charges         :   -0.0000000

LOEWDIN ATOMIC CHARGES AND SPIN POPULATIONS
-------------------------------------------
   0 Cd:    0.000000    0.000000

FINAL SINGLE POINT ENERGY     -5355.250724787403

DIPOLE MOMENT
-------------
                                X             Y             Z
Electronic contribution:      0.00000       0.00000       0.00000
Nuclear contribution   :      0.00000       0.00000       0.00000
                        -----------------------------------------
Total Dipole Moment    :      0.00000       0.00000       0.00000
                        -----------------------------------------
Magnitude (a.u.)       :      0.00000
Magnitude (Debye)      :      0.00000

Rotational constants in cm-1:     0.000000     0.000000     0.000000
Rotational constants in MHz :     0.000000     0.000000     0.000000

                             ****ORCA TERMINATED NORMALLY****
TOTAL RUN TIME: 0 days 0 hours 16 minutes 38 seconds 601 msec
