                         Program Version 5.0.1 -  RELEASE  -
|  1> !uks pbe nori verytightscf soscf
|  2>
|  3> %pal
|  4>   nprocs 32
|  5> end
|  6> %coords
|  7>   charge 0
|  8>   mult 2
|  9>   units bohrs
| 10>   coords
| 11>     I 0.0 0.0 0.0
| 12>   end
| 13> end
| 14> %basis
| 15>   gtoname "/cluster/home/ambr/projects/zora/row5/calcs_gto/I_ano-r3.basis"
| 16>   delECP I
| 17> end
| 18> %plots
| 19>   format gaussian_cube
| 20>   dim1 120
| 21>   dim2 120
| 22>   dim3 120
| 23>   MO("I_ano-r3_pbe_phi_a_scf_0_re.cube",0,0);
| 24>   MO("I_ano-r3_pbe_phi_a_scf_1_re.cube",1,0);
| 25>   MO("I_ano-r3_pbe_phi_a_scf_2_re.cube",2,0);
| 26>   MO("I_ano-r3_pbe_phi_a_scf_3_re.cube",3,0);
| 27>   MO("I_ano-r3_pbe_phi_a_scf_4_re.cube",4,0);
| 28>   MO("I_ano-r3_pbe_phi_a_scf_5_re.cube",5,0);
| 29>   MO("I_ano-r3_pbe_phi_a_scf_6_re.cube",6,0);
| 30>   MO("I_ano-r3_pbe_phi_a_scf_7_re.cube",7,0);
| 31>   MO("I_ano-r3_pbe_phi_a_scf_8_re.cube",8,0);
| 32>   MO("I_ano-r3_pbe_phi_a_scf_9_re.cube",9,0);
| 33>   MO("I_ano-r3_pbe_phi_a_scf_10_re.cube",10,0);
| 34>   MO("I_ano-r3_pbe_phi_a_scf_11_re.cube",11,0);
| 35>   MO("I_ano-r3_pbe_phi_a_scf_12_re.cube",12,0);
| 36>   MO("I_ano-r3_pbe_phi_a_scf_13_re.cube",13,0);
| 37>   MO("I_ano-r3_pbe_phi_a_scf_14_re.cube",14,0);
| 38>   MO("I_ano-r3_pbe_phi_a_scf_15_re.cube",15,0);
| 39>   MO("I_ano-r3_pbe_phi_a_scf_16_re.cube",16,0);
| 40>   MO("I_ano-r3_pbe_phi_a_scf_17_re.cube",17,0);
| 41>   MO("I_ano-r3_pbe_phi_a_scf_18_re.cube",18,0);
| 42>   MO("I_ano-r3_pbe_phi_a_scf_19_re.cube",19,0);
| 43>   MO("I_ano-r3_pbe_phi_a_scf_20_re.cube",20,0);
| 44>   MO("I_ano-r3_pbe_phi_a_scf_21_re.cube",21,0);
| 45>   MO("I_ano-r3_pbe_phi_a_scf_22_re.cube",22,0);
| 46>   MO("I_ano-r3_pbe_phi_a_scf_23_re.cube",23,0);
| 47>   MO("I_ano-r3_pbe_phi_a_scf_24_re.cube",24,0);
| 48>   MO("I_ano-r3_pbe_phi_a_scf_25_re.cube",25,0);
| 49>   MO("I_ano-r3_pbe_phi_a_scf_26_re.cube",26,0);
| 50>   MO("I_ano-r3_pbe_phi_b_scf_0_re.cube",0,1);
| 51>   MO("I_ano-r3_pbe_phi_b_scf_1_re.cube",1,1);
| 52>   MO("I_ano-r3_pbe_phi_b_scf_2_re.cube",2,1);
| 53>   MO("I_ano-r3_pbe_phi_b_scf_3_re.cube",3,1);
| 54>   MO("I_ano-r3_pbe_phi_b_scf_4_re.cube",4,1);
| 55>   MO("I_ano-r3_pbe_phi_b_scf_5_re.cube",5,1);
| 56>   MO("I_ano-r3_pbe_phi_b_scf_6_re.cube",6,1);
| 57>   MO("I_ano-r3_pbe_phi_b_scf_7_re.cube",7,1);
| 58>   MO("I_ano-r3_pbe_phi_b_scf_8_re.cube",8,1);
| 59>   MO("I_ano-r3_pbe_phi_b_scf_9_re.cube",9,1);
| 60>   MO("I_ano-r3_pbe_phi_b_scf_10_re.cube",10,1);
| 61>   MO("I_ano-r3_pbe_phi_b_scf_11_re.cube",11,1);
| 62>   MO("I_ano-r3_pbe_phi_b_scf_12_re.cube",12,1);
| 63>   MO("I_ano-r3_pbe_phi_b_scf_13_re.cube",13,1);
| 64>   MO("I_ano-r3_pbe_phi_b_scf_14_re.cube",14,1);
| 65>   MO("I_ano-r3_pbe_phi_b_scf_15_re.cube",15,1);
| 66>   MO("I_ano-r3_pbe_phi_b_scf_16_re.cube",16,1);
| 67>   MO("I_ano-r3_pbe_phi_b_scf_17_re.cube",17,1);
| 68>   MO("I_ano-r3_pbe_phi_b_scf_18_re.cube",18,1);
| 69>   MO("I_ano-r3_pbe_phi_b_scf_19_re.cube",19,1);
| 70>   MO("I_ano-r3_pbe_phi_b_scf_20_re.cube",20,1);
| 71>   MO("I_ano-r3_pbe_phi_b_scf_21_re.cube",21,1);
| 72>   MO("I_ano-r3_pbe_phi_b_scf_22_re.cube",22,1);
| 73>   MO("I_ano-r3_pbe_phi_b_scf_23_re.cube",23,1);
| 74>   MO("I_ano-r3_pbe_phi_b_scf_24_re.cube",24,1);
| 75>   MO("I_ano-r3_pbe_phi_b_scf_25_re.cube",25,1);
| 76> endd                         ****END OF INPUT****

CARTESIAN COORDINATES (ANGSTROEM)
---------------------------------
  I      0.000000    0.000000    0.000000

 Total Charge           Charge          ....    0
 Multiplicity           Mult            ....    2
 Number of Electrons    NEL             ....   53
 Basis Dimension        Dim             ....  120

ORBITAL ENERGIES
----------------
                 SPIN UP ORBITALS
  NO   OCC          E(Eh)            E(eV)
   0   1.0000   -1077.931694    -29332.0126
   1   1.0000    -163.139250     -4439.2447
   2   1.0000    -163.135252     -4439.1359
   3   1.0000    -163.135252     -4439.1359
   4   1.0000    -159.579679     -4342.3838
   5   1.0000     -31.365495      -853.4985
   6   1.0000     -30.763292      -837.1117
   7   1.0000     -30.755492      -836.8995
   8   1.0000     -30.755492      -836.8995
   9   1.0000     -22.816545      -620.8698
  10   1.0000     -22.814801      -620.8223
  11   1.0000     -22.814801      -620.8223
  12   1.0000     -22.809543      -620.6792
  13   1.0000     -22.809543      -620.6792
  14   1.0000      -5.269036      -143.3778
  15   1.0000      -4.643043      -126.3436
  16   1.0000      -4.625880      -125.8766
  17   1.0000      -4.625880      -125.8766
  18   1.0000      -2.044581       -55.6359
  19   1.0000      -2.039776       -55.5051
  20   1.0000      -2.039776       -55.5051
  21   1.0000      -2.025442       -55.1151
  22   1.0000      -2.025442       -55.1151
  23   1.0000      -0.497846       -13.5471
  24   1.0000      -0.312813        -8.5121
  25   1.0000      -0.273207        -7.4344
  26   1.0000      -0.273207        -7.4344
  27   0.0000       0.032725         0.8905
  28   0.0000       0.154136         4.1943
  29   0.0000       0.166117         4.5203
  30   0.0000       0.172293         4.6883
  31   0.0000       0.172293         4.6883

                 SPIN DOWN ORBITALS
  NO   OCC          E(Eh)            E(eV)
   0   1.0000   -1077.930363    -29331.9764
   1   1.0000    -163.136987     -4439.1831
   2   1.0000    -163.134683     -4439.1204
   3   1.0000    -163.134683     -4439.1204
   4   1.0000    -159.579019     -4342.3659
   5   1.0000     -31.364223      -853.4639
   6   1.0000     -30.760783      -837.0435
   7   1.0000     -30.754881      -836.8829
   8   1.0000     -30.754881      -836.8829
   9   1.0000     -22.814565      -620.8159
  10   1.0000     -22.813243      -620.7799
  11   1.0000     -22.813243      -620.7799
  12   1.0000     -22.809244      -620.6711
  13   1.0000     -22.809244      -620.6711
  14   1.0000      -5.266765      -143.3160
  15   1.0000      -4.637528      -126.1936
  16   1.0000      -4.624775      -125.8465
  17   1.0000      -4.624775      -125.8465
  18   1.0000      -2.037222       -55.4356
  19   1.0000      -2.034399       -55.3588
  20   1.0000      -2.034399       -55.3588
  21   1.0000      -2.024789       -55.0973
  22   1.0000      -2.024789       -55.0973
  23   1.0000      -0.470063       -12.7911
  24   1.0000      -0.262808        -7.1514
  25   1.0000      -0.262808        -7.1514
  26   0.0000      -0.256523        -6.9804
  27   0.0000       0.040797         1.1102
  28   0.0000       0.176638         4.8066
  29   0.0000       0.176638         4.8066
  30   0.0000       0.178896         4.8680

MULLIKEN ATOMIC CHARGES AND SPIN POPULATIONS
--------------------------------------------
   0 I :   -0.000000    1.000000
Sum of atomic charges         :   -0.0000000

LOEWDIN ATOMIC CHARGES AND SPIN POPULATIONS
-------------------------------------------
   0 I :    0.000000    1.000000

FINAL SINGLE POINT ENERGY     -6714.297368561108

DIPOLE MOMENT
-------------
                                X             Y             Z
Electronic contribution:      0.00000      -0.00000      -0.00000
Nuclear contribution   :      0.00000       0.00000       0.00000
                        -----------------------------------------
Total Dipole Moment    :      0.00000      -0.00000      -0.00000
                        -----------------------------------------
Magnitude (a.u.)       :      0.00000
Magnitude (Debye)      :      0.00000

Rotational constants in cm-1:     0.000000     0.000000     0.000000
Rotational constants in MHz :     0.000000     0.000000     0.000000

                             ****ORCA TERMINATED NORMALLY****
TOTAL RUN TIME: 0 days 1 hours 0 minutes 45 seconds 551 msec
