                         Program Version 5.0.1 -  RELEASE  -
|  1> !uks pbe nori verytightscf soscf
|  2>
|  3> %pal
|  4>   nprocs 32
|  5> end
|  6> %coords
|  7>   charge 0
|  8>   mult 2
|  9>   units bohrs
| 10>   coords
| 11>     In 0.0 0.0 0.0
| 12>   end
| 13> end
| 14> %basis
| 15>   gtoname "/cluster/home/ambr/projects/zora/row5/calcs_gto/In_ano-r3.basis"
| 16>   delECP In
| 17> end
| 18> %plots
| 19>   format gaussian_cube
| 20>   dim1 120
| 21>   dim2 120
| 22>   dim3 120
| 23>   MO("In_ano-r3_pbe_phi_a_scf_0_re.cube",0,0);
| 24>   MO("In_ano-r3_pbe_phi_a_scf_1_re.cube",1,0);
| 25>   MO("In_ano-r3_pbe_phi_a_scf_2_re.cube",2,0);
| 26>   MO("In_ano-r3_pbe_phi_a_scf_3_re.cube",3,0);
| 27>   MO("In_ano-r3_pbe_phi_a_scf_4_re.cube",4,0);
| 28>   MO("In_ano-r3_pbe_phi_a_scf_5_re.cube",5,0);
| 29>   MO("In_ano-r3_pbe_phi_a_scf_6_re.cube",6,0);
| 30>   MO("In_ano-r3_pbe_phi_a_scf_7_re.cube",7,0);
| 31>   MO("In_ano-r3_pbe_phi_a_scf_8_re.cube",8,0);
| 32>   MO("In_ano-r3_pbe_phi_a_scf_9_re.cube",9,0);
| 33>   MO("In_ano-r3_pbe_phi_a_scf_10_re.cube",10,0);
| 34>   MO("In_ano-r3_pbe_phi_a_scf_11_re.cube",11,0);
| 35>   MO("In_ano-r3_pbe_phi_a_scf_12_re.cube",12,0);
| 36>   MO("In_ano-r3_pbe_phi_a_scf_13_re.cube",13,0);
| 37>   MO("In_ano-r3_pbe_phi_a_scf_14_re.cube",14,0);
| 38>   MO("In_ano-r3_pbe_phi_a_scf_15_re.cube",15,0);
| 39>   MO("In_ano-r3_pbe_phi_a_scf_16_re.cube",16,0);
| 40>   MO("In_ano-r3_pbe_phi_a_scf_17_re.cube",17,0);
| 41>   MO("In_ano-r3_pbe_phi_a_scf_18_re.cube",18,0);
| 42>   MO("In_ano-r3_pbe_phi_a_scf_19_re.cube",19,0);
| 43>   MO("In_ano-r3_pbe_phi_a_scf_20_re.cube",20,0);
| 44>   MO("In_ano-r3_pbe_phi_a_scf_21_re.cube",21,0);
| 45>   MO("In_ano-r3_pbe_phi_a_scf_22_re.cube",22,0);
| 46>   MO("In_ano-r3_pbe_phi_a_scf_23_re.cube",23,0);
| 47>   MO("In_ano-r3_pbe_phi_a_scf_24_re.cube",24,0);
| 48>   MO("In_ano-r3_pbe_phi_b_scf_0_re.cube",0,1);
| 49>   MO("In_ano-r3_pbe_phi_b_scf_1_re.cube",1,1);
| 50>   MO("In_ano-r3_pbe_phi_b_scf_2_re.cube",2,1);
| 51>   MO("In_ano-r3_pbe_phi_b_scf_3_re.cube",3,1);
| 52>   MO("In_ano-r3_pbe_phi_b_scf_4_re.cube",4,1);
| 53>   MO("In_ano-r3_pbe_phi_b_scf_5_re.cube",5,1);
| 54>   MO("In_ano-r3_pbe_phi_b_scf_6_re.cube",6,1);
| 55>   MO("In_ano-r3_pbe_phi_b_scf_7_re.cube",7,1);
| 56>   MO("In_ano-r3_pbe_phi_b_scf_8_re.cube",8,1);
| 57>   MO("In_ano-r3_pbe_phi_b_scf_9_re.cube",9,1);
| 58>   MO("In_ano-r3_pbe_phi_b_scf_10_re.cube",10,1);
| 59>   MO("In_ano-r3_pbe_phi_b_scf_11_re.cube",11,1);
| 60>   MO("In_ano-r3_pbe_phi_b_scf_12_re.cube",12,1);
| 61>   MO("In_ano-r3_pbe_phi_b_scf_13_re.cube",13,1);
| 62>   MO("In_ano-r3_pbe_phi_b_scf_14_re.cube",14,1);
| 63>   MO("In_ano-r3_pbe_phi_b_scf_15_re.cube",15,1);
| 64>   MO("In_ano-r3_pbe_phi_b_scf_16_re.cube",16,1);
| 65>   MO("In_ano-r3_pbe_phi_b_scf_17_re.cube",17,1);
| 66>   MO("In_ano-r3_pbe_phi_b_scf_18_re.cube",18,1);
| 67>   MO("In_ano-r3_pbe_phi_b_scf_19_re.cube",19,1);
| 68>   MO("In_ano-r3_pbe_phi_b_scf_20_re.cube",20,1);
| 69>   MO("In_ano-r3_pbe_phi_b_scf_21_re.cube",21,1);
| 70>   MO("In_ano-r3_pbe_phi_b_scf_22_re.cube",22,1);
| 71>   MO("In_ano-r3_pbe_phi_b_scf_23_re.cube",23,1);
| 72> endd                         ****END OF INPUT****

CARTESIAN COORDINATES (ANGSTROEM)
---------------------------------
  In     0.000000    0.000000    0.000000

 Total Charge           Charge          ....    0
 Multiplicity           Mult            ....    2
 Number of Electrons    NEL             ....   49
 Basis Dimension        Dim             ....  104

ORBITAL ENERGIES
----------------
                 SPIN UP ORBITALS
  NO   OCC          E(Eh)            E(eV)
   0   1.0000    -930.227440    -25312.7755
   1   1.0000    -134.586045     -3662.2725
   2   1.0000    -133.404625     -3630.1244
   3   1.0000    -133.404625     -3630.1244
   4   1.0000    -133.403398     -3630.0910
   5   1.0000     -24.991423      -680.0512
   6   1.0000     -23.247414      -632.5943
   7   1.0000     -23.247414      -632.5943
   8   1.0000     -23.244347      -632.5108
   9   1.0000     -16.207165      -441.0194
  10   1.0000     -16.207165      -441.0194
  11   1.0000     -16.205076      -440.9625
  12   1.0000     -16.205076      -440.9625
  13   1.0000     -16.204376      -440.9435
  14   1.0000      -3.621992       -98.5594
  15   1.0000      -2.824135       -76.8486
  16   1.0000      -2.824135       -76.8486
  17   1.0000      -2.816358       -76.6370
  18   1.0000      -0.777529       -21.1576
  19   1.0000      -0.777529       -21.1576
  20   1.0000      -0.771176       -20.9848
  21   1.0000      -0.771176       -20.9848
  22   1.0000      -0.768748       -20.9187
  23   1.0000      -0.257913        -7.0182
  24   1.0000      -0.114477        -3.1151
  25   0.0000      -0.107680        -2.9301
  26   0.0000      -0.107680        -2.9301
  27   0.0000       0.002108         0.0574
  28   0.0000       0.122309         3.3282
  29   0.0000       0.125453         3.4138

                 SPIN DOWN ORBITALS
  NO   OCC          E(Eh)            E(eV)
   0   1.0000    -930.226997    -25312.7635
   1   1.0000    -134.585933     -3662.2694
   2   1.0000    -133.404497     -3630.1209
   3   1.0000    -133.404497     -3630.1209
   4   1.0000    -133.402701     -3630.0720
   5   1.0000     -24.991027      -680.0404
   6   1.0000     -23.247271      -632.5904
   7   1.0000     -23.247271      -632.5904
   8   1.0000     -23.243422      -632.4857
   9   1.0000     -16.207172      -441.0196
  10   1.0000     -16.207172      -441.0196
  11   1.0000     -16.204563      -440.9486
  12   1.0000     -16.204563      -440.9486
  13   1.0000     -16.203684      -440.9247
  14   1.0000      -3.621273       -98.5399
  15   1.0000      -2.823958       -76.8438
  16   1.0000      -2.823958       -76.8438
  17   1.0000      -2.814243       -76.5794
  18   1.0000      -0.777283       -21.1509
  19   1.0000      -0.777283       -21.1509
  20   1.0000      -0.767731       -20.8910
  21   1.0000      -0.767731       -20.8910
  22   1.0000      -0.764685       -20.8081
  23   1.0000      -0.238780        -6.4975
  24   0.0000      -0.097906        -2.6642
  25   0.0000      -0.097906        -2.6642
  26   0.0000      -0.074268        -2.0209
  27   0.0000       0.016589         0.4514
  28   0.0000       0.134242         3.6529

MULLIKEN ATOMIC CHARGES AND SPIN POPULATIONS
--------------------------------------------
   0 In:    0.000000    1.000000
Sum of atomic charges         :    0.0000000

LOEWDIN ATOMIC CHARGES AND SPIN POPULATIONS
-------------------------------------------
   0 In:   -0.000000    1.000000

FINAL SINGLE POINT ENERGY     -5614.993007127820

DIPOLE MOMENT
-------------
                                X             Y             Z
Electronic contribution:      0.00000       0.00000      -0.00000
Nuclear contribution   :      0.00000       0.00000       0.00000
                        -----------------------------------------
Total Dipole Moment    :      0.00000       0.00000      -0.00000
                        -----------------------------------------
Magnitude (a.u.)       :      0.00000
Magnitude (Debye)      :      0.00000

Rotational constants in cm-1:     0.000000     0.000000     0.000000
Rotational constants in MHz :     0.000000     0.000000     0.000000

                             ****ORCA TERMINATED NORMALLY****
TOTAL RUN TIME: 0 days 0 hours 48 minutes 45 seconds 615 msec
