                         Program Version 5.0.1 -  RELEASE  -
|  1> !uks pbe nori verytightscf soscf
|  2>
|  3> %pal
|  4>   nprocs 32
|  5> end
|  6> %coords
|  7>   charge 0
|  8>   mult 7
|  9>   units bohrs
| 10>   coords
| 11>     Mo 0.0 0.0 0.0
| 12>   end
| 13> end
| 14> %basis
| 15>   gtoname "/cluster/home/ambr/projects/zora/row5/calcs_gto/Mo_ano-r3.basis"
| 16>   delECP Mo
| 17> end
| 18> %plots
| 19>   format gaussian_cube
| 20>   dim1 120
| 21>   dim2 120
| 22>   dim3 120
| 23>   MO("Mo_ano-r3_pbe_phi_a_scf_0_re.cube",0,0);
| 24>   MO("Mo_ano-r3_pbe_phi_a_scf_1_re.cube",1,0);
| 25>   MO("Mo_ano-r3_pbe_phi_a_scf_2_re.cube",2,0);
| 26>   MO("Mo_ano-r3_pbe_phi_a_scf_3_re.cube",3,0);
| 27>   MO("Mo_ano-r3_pbe_phi_a_scf_4_re.cube",4,0);
| 28>   MO("Mo_ano-r3_pbe_phi_a_scf_5_re.cube",5,0);
| 29>   MO("Mo_ano-r3_pbe_phi_a_scf_6_re.cube",6,0);
| 30>   MO("Mo_ano-r3_pbe_phi_a_scf_7_re.cube",7,0);
| 31>   MO("Mo_ano-r3_pbe_phi_a_scf_8_re.cube",8,0);
| 32>   MO("Mo_ano-r3_pbe_phi_a_scf_9_re.cube",9,0);
| 33>   MO("Mo_ano-r3_pbe_phi_a_scf_10_re.cube",10,0);
| 34>   MO("Mo_ano-r3_pbe_phi_a_scf_11_re.cube",11,0);
| 35>   MO("Mo_ano-r3_pbe_phi_a_scf_12_re.cube",12,0);
| 36>   MO("Mo_ano-r3_pbe_phi_a_scf_13_re.cube",13,0);
| 37>   MO("Mo_ano-r3_pbe_phi_a_scf_14_re.cube",14,0);
| 38>   MO("Mo_ano-r3_pbe_phi_a_scf_15_re.cube",15,0);
| 39>   MO("Mo_ano-r3_pbe_phi_a_scf_16_re.cube",16,0);
| 40>   MO("Mo_ano-r3_pbe_phi_a_scf_17_re.cube",17,0);
| 41>   MO("Mo_ano-r3_pbe_phi_a_scf_18_re.cube",18,0);
| 42>   MO("Mo_ano-r3_pbe_phi_a_scf_19_re.cube",19,0);
| 43>   MO("Mo_ano-r3_pbe_phi_a_scf_20_re.cube",20,0);
| 44>   MO("Mo_ano-r3_pbe_phi_a_scf_21_re.cube",21,0);
| 45>   MO("Mo_ano-r3_pbe_phi_a_scf_22_re.cube",22,0);
| 46>   MO("Mo_ano-r3_pbe_phi_a_scf_23_re.cube",23,0);
| 47>   MO("Mo_ano-r3_pbe_phi_b_scf_0_re.cube",0,1);
| 48>   MO("Mo_ano-r3_pbe_phi_b_scf_1_re.cube",1,1);
| 49>   MO("Mo_ano-r3_pbe_phi_b_scf_2_re.cube",2,1);
| 50>   MO("Mo_ano-r3_pbe_phi_b_scf_3_re.cube",3,1);
| 51>   MO("Mo_ano-r3_pbe_phi_b_scf_4_re.cube",4,1);
| 52>   MO("Mo_ano-r3_pbe_phi_b_scf_5_re.cube",5,1);
| 53>   MO("Mo_ano-r3_pbe_phi_b_scf_6_re.cube",6,1);
| 54>   MO("Mo_ano-r3_pbe_phi_b_scf_7_re.cube",7,1);
| 55>   MO("Mo_ano-r3_pbe_phi_b_scf_8_re.cube",8,1);
| 56>   MO("Mo_ano-r3_pbe_phi_b_scf_9_re.cube",9,1);
| 57>   MO("Mo_ano-r3_pbe_phi_b_scf_10_re.cube",10,1);
| 58>   MO("Mo_ano-r3_pbe_phi_b_scf_11_re.cube",11,1);
| 59>   MO("Mo_ano-r3_pbe_phi_b_scf_12_re.cube",12,1);
| 60>   MO("Mo_ano-r3_pbe_phi_b_scf_13_re.cube",13,1);
| 61>   MO("Mo_ano-r3_pbe_phi_b_scf_14_re.cube",14,1);
| 62>   MO("Mo_ano-r3_pbe_phi_b_scf_15_re.cube",15,1);
| 63>   MO("Mo_ano-r3_pbe_phi_b_scf_16_re.cube",16,1);
| 64>   MO("Mo_ano-r3_pbe_phi_b_scf_17_re.cube",17,1);
| 65> endd                         ****END OF INPUT****

CARTESIAN COORDINATES (ANGSTROEM)
---------------------------------
  Mo     0.000000    0.000000    0.000000

 Total Charge           Charge          ....    0
 Multiplicity           Mult            ....    7
 Number of Electrons    NEL             ....   42
 Basis Dimension        Dim             ....  101

ORBITAL ENERGIES
----------------
                 SPIN UP ORBITALS
  NO   OCC          E(Eh)            E(eV)
   0   1.0000    -687.153114    -18698.3868
   1   1.0000     -94.912056     -2582.6883
   2   1.0000     -90.173861     -2453.7555
   3   1.0000     -90.173861     -2453.7555
   4   1.0000     -90.173861     -2453.7555
   5   1.0000     -15.963366      -434.3853
   6   1.0000     -13.665423      -371.8551
   7   1.0000     -13.665423      -371.8551
   8   1.0000     -13.665423      -371.8551
   9   1.0000      -8.261771      -224.8142
  10   1.0000      -8.261771      -224.8142
  11   1.0000      -8.261771      -224.8142
  12   1.0000      -8.261771      -224.8142
  13   1.0000      -8.261771      -224.8142
  14   1.0000      -2.134862       -58.0926
  15   1.0000      -1.413589       -38.4657
  16   1.0000      -1.413589       -38.4657
  17   1.0000      -1.413589       -38.4657
  18   1.0000      -0.183033        -4.9806
  19   1.0000      -0.183033        -4.9806
  20   1.0000      -0.183033        -4.9806
  21   1.0000      -0.183033        -4.9806
  22   1.0000      -0.183033        -4.9806
  23   1.0000      -0.147323        -4.0089
  24   0.0000       0.001166         0.0317
  25   0.0000       0.001166         0.0317
  26   0.0000       0.001166         0.0317
  27   0.0000       0.004836         0.1316
  28   0.0000       0.064165         1.7460

                 SPIN DOWN ORBITALS
  NO   OCC          E(Eh)            E(eV)
   0   1.0000    -687.152877    -18698.3804
   1   1.0000     -94.894440     -2582.2090
   2   1.0000     -90.160878     -2453.4022
   3   1.0000     -90.160878     -2453.4022
   4   1.0000     -90.160878     -2453.4022
   5   1.0000     -15.952798      -434.0977
   6   1.0000     -13.654210      -371.5499
   7   1.0000     -13.654210      -371.5499
   8   1.0000     -13.654210      -371.5499
   9   1.0000      -8.244944      -224.3563
  10   1.0000      -8.244944      -224.3563
  11   1.0000      -8.244944      -224.3563
  12   1.0000      -8.244944      -224.3563
  13   1.0000      -8.244944      -224.3563
  14   1.0000      -2.027456       -55.1699
  15   1.0000      -1.300364       -35.3847
  16   1.0000      -1.300364       -35.3847
  17   1.0000      -1.300364       -35.3847
  18   0.0000      -0.060244        -1.6393
  19   0.0000      -0.060244        -1.6393
  20   0.0000      -0.060244        -1.6393
  21   0.0000      -0.060244        -1.6393
  22   0.0000      -0.060244        -1.6393

MULLIKEN ATOMIC CHARGES AND SPIN POPULATIONS
--------------------------------------------
   0 Mo:    0.000000    6.000000
Sum of atomic charges         :    0.0000000

LOEWDIN ATOMIC CHARGES AND SPIN POPULATIONS
-------------------------------------------
   0 Mo:   -0.000000    6.000000

FINAL SINGLE POINT ENERGY     -3926.989139055939

DIPOLE MOMENT
-------------
                                X             Y             Z
Electronic contribution:      0.00000       0.00000      -0.00000
Nuclear contribution   :      0.00000       0.00000       0.00000
                        -----------------------------------------
Total Dipole Moment    :      0.00000       0.00000      -0.00000
                        -----------------------------------------
Magnitude (a.u.)       :      0.00000
Magnitude (Debye)      :      0.00000

Rotational constants in cm-1:     0.000000     0.000000     0.000000
Rotational constants in MHz :     0.000000     0.000000     0.000000

                             ****ORCA TERMINATED NORMALLY****
TOTAL RUN TIME: 0 days 0 hours 17 minutes 39 seconds 721 msec
