                         Program Version 5.0.1 -  RELEASE  -
|  1> !uks pbe nori verytightscf soscf
|  2>
|  3> %pal
|  4>   nprocs 32
|  5> end
|  6> %coords
|  7>   charge 0
|  8>   mult 6
|  9>   units bohrs
| 10>   coords
| 11>     Nb 0.0 0.0 0.0
| 12>   end
| 13> end
| 14> %basis
| 15>   gtoname "/cluster/home/ambr/projects/zora/row5/calcs_gto/Nb_ano-r3.basis"
| 16>   delECP Nb
| 17> end
| 18> %plots
| 19>   format gaussian_cube
| 20>   dim1 120
| 21>   dim2 120
| 22>   dim3 120
| 23>   MO("Nb_ano-r3_pbe_phi_a_scf_0_re.cube",0,0);
| 24>   MO("Nb_ano-r3_pbe_phi_a_scf_1_re.cube",1,0);
| 25>   MO("Nb_ano-r3_pbe_phi_a_scf_2_re.cube",2,0);
| 26>   MO("Nb_ano-r3_pbe_phi_a_scf_3_re.cube",3,0);
| 27>   MO("Nb_ano-r3_pbe_phi_a_scf_4_re.cube",4,0);
| 28>   MO("Nb_ano-r3_pbe_phi_a_scf_5_re.cube",5,0);
| 29>   MO("Nb_ano-r3_pbe_phi_a_scf_6_re.cube",6,0);
| 30>   MO("Nb_ano-r3_pbe_phi_a_scf_7_re.cube",7,0);
| 31>   MO("Nb_ano-r3_pbe_phi_a_scf_8_re.cube",8,0);
| 32>   MO("Nb_ano-r3_pbe_phi_a_scf_9_re.cube",9,0);
| 33>   MO("Nb_ano-r3_pbe_phi_a_scf_10_re.cube",10,0);
| 34>   MO("Nb_ano-r3_pbe_phi_a_scf_11_re.cube",11,0);
| 35>   MO("Nb_ano-r3_pbe_phi_a_scf_12_re.cube",12,0);
| 36>   MO("Nb_ano-r3_pbe_phi_a_scf_13_re.cube",13,0);
| 37>   MO("Nb_ano-r3_pbe_phi_a_scf_14_re.cube",14,0);
| 38>   MO("Nb_ano-r3_pbe_phi_a_scf_15_re.cube",15,0);
| 39>   MO("Nb_ano-r3_pbe_phi_a_scf_16_re.cube",16,0);
| 40>   MO("Nb_ano-r3_pbe_phi_a_scf_17_re.cube",17,0);
| 41>   MO("Nb_ano-r3_pbe_phi_a_scf_18_re.cube",18,0);
| 42>   MO("Nb_ano-r3_pbe_phi_a_scf_19_re.cube",19,0);
| 43>   MO("Nb_ano-r3_pbe_phi_a_scf_20_re.cube",20,0);
| 44>   MO("Nb_ano-r3_pbe_phi_a_scf_21_re.cube",21,0);
| 45>   MO("Nb_ano-r3_pbe_phi_a_scf_22_re.cube",22,0);
| 46>   MO("Nb_ano-r3_pbe_phi_b_scf_0_re.cube",0,1);
| 47>   MO("Nb_ano-r3_pbe_phi_b_scf_1_re.cube",1,1);
| 48>   MO("Nb_ano-r3_pbe_phi_b_scf_2_re.cube",2,1);
| 49>   MO("Nb_ano-r3_pbe_phi_b_scf_3_re.cube",3,1);
| 50>   MO("Nb_ano-r3_pbe_phi_b_scf_4_re.cube",4,1);
| 51>   MO("Nb_ano-r3_pbe_phi_b_scf_5_re.cube",5,1);
| 52>   MO("Nb_ano-r3_pbe_phi_b_scf_6_re.cube",6,1);
| 53>   MO("Nb_ano-r3_pbe_phi_b_scf_7_re.cube",7,1);
| 54>   MO("Nb_ano-r3_pbe_phi_b_scf_8_re.cube",8,1);
| 55>   MO("Nb_ano-r3_pbe_phi_b_scf_9_re.cube",9,1);
| 56>   MO("Nb_ano-r3_pbe_phi_b_scf_10_re.cube",10,1);
| 57>   MO("Nb_ano-r3_pbe_phi_b_scf_11_re.cube",11,1);
| 58>   MO("Nb_ano-r3_pbe_phi_b_scf_12_re.cube",12,1);
| 59>   MO("Nb_ano-r3_pbe_phi_b_scf_13_re.cube",13,1);
| 60>   MO("Nb_ano-r3_pbe_phi_b_scf_14_re.cube",14,1);
| 61>   MO("Nb_ano-r3_pbe_phi_b_scf_15_re.cube",15,1);
| 62>   MO("Nb_ano-r3_pbe_phi_b_scf_16_re.cube",16,1);
| 63>   MO("Nb_ano-r3_pbe_phi_b_scf_17_re.cube",17,1);
| 64> endd                         ****END OF INPUT****

CARTESIAN COORDINATES (ANGSTROEM)
---------------------------------
  Nb     0.000000    0.000000    0.000000

 Total Charge           Charge          ....    0
 Multiplicity           Mult            ....    6
 Number of Electrons    NEL             ....   41
 Basis Dimension        Dim             ....  106

ORBITAL ENERGIES
----------------
                 SPIN UP ORBITALS
  NO   OCC          E(Eh)            E(eV)
   0   1.0000    -654.553447    -17811.3048
   1   1.0000     -89.676381     -2440.2184
   2   1.0000     -84.743720     -2305.9939
   3   1.0000     -84.739324     -2305.8742
   4   1.0000     -84.739324     -2305.8742
   5   1.0000     -14.807497      -402.9325
   6   1.0000     -12.522650      -340.7586
   7   1.0000     -12.511268      -340.4489
   8   1.0000     -12.511267      -340.4489
   9   1.0000      -7.350452      -200.0160
  10   1.0000      -7.348445      -199.9614
  11   1.0000      -7.348445      -199.9614
  12   1.0000      -7.340625      -199.7486
  13   1.0000      -7.340625      -199.7486
  14   1.0000      -1.949973       -53.0615
  15   1.0000      -1.266059       -34.4512
  16   1.0000      -1.257802       -34.2265
  17   1.0000      -1.257802       -34.2265
  18   1.0000      -0.151610        -4.1255
  19   1.0000      -0.151609        -4.1255
  20   1.0000      -0.144018        -3.9189
  21   1.0000      -0.138896        -3.7796
  22   1.0000      -0.138896        -3.7795
  23   0.0000      -0.136226        -3.7069
  24   0.0000      -0.000452        -0.0123
  25   0.0000       0.006006         0.1634
  26   0.0000       0.006006         0.1634
  27   0.0000       0.044757         1.2179

                 SPIN DOWN ORBITALS
  NO   OCC          E(Eh)            E(eV)
   0   1.0000    -654.553310    -17811.3011
   1   1.0000     -89.664366     -2439.8914
   2   1.0000     -84.736028     -2305.7846
   3   1.0000     -84.729989     -2305.6202
   4   1.0000     -84.729989     -2305.6202
   5   1.0000     -14.800449      -402.7407
   6   1.0000     -12.516954      -340.6036
   7   1.0000     -12.502626      -340.2138
   8   1.0000     -12.502626      -340.2138
   9   1.0000      -7.344179      -199.8453
  10   1.0000      -7.335683      -199.6141
  11   1.0000      -7.335683      -199.6141
  12   1.0000      -7.327792      -199.3994
  13   1.0000      -7.327792      -199.3994
  14   1.0000      -1.872097       -50.9423
  15   1.0000      -1.196506       -32.5586
  16   1.0000      -1.166519       -31.7426
  17   1.0000      -1.166519       -31.7426
  18   0.0000      -0.066103        -1.7987
  19   0.0000      -0.054867        -1.4930
  20   0.0000      -0.043858        -1.1934
  21   0.0000      -0.043858        -1.1934
  22   0.0000      -0.037941        -1.0324

MULLIKEN ATOMIC CHARGES AND SPIN POPULATIONS
--------------------------------------------
   0 Nb:   -0.000000    5.000000
Sum of atomic charges         :   -0.0000000

LOEWDIN ATOMIC CHARGES AND SPIN POPULATIONS
-------------------------------------------
   0 Nb:    0.000000    5.000000

FINAL SINGLE POINT ENERGY     -3711.728832641807

DIPOLE MOMENT
-------------
                                X             Y             Z
Electronic contribution:      0.00000       0.00000      -0.00000
Nuclear contribution   :      0.00000       0.00000       0.00000
                        -----------------------------------------
Total Dipole Moment    :      0.00000       0.00000      -0.00000
                        -----------------------------------------
Magnitude (a.u.)       :      0.00000
Magnitude (Debye)      :      0.00000

Rotational constants in cm-1:     0.000000     0.000000     0.000000
Rotational constants in MHz :     0.000000     0.000000     0.000000

                             ****ORCA TERMINATED NORMALLY****
TOTAL RUN TIME: 0 days 1 hours 24 minutes 24 seconds 339 msec
