                         Program Version 5.0.1 -  RELEASE  -
|  1> !uks pbe nori verytightscf soscf
|  2>
|  3> %pal
|  4>   nprocs 32
|  5> end
|  6> %coords
|  7>   charge 0
|  8>   mult 1
|  9>   units bohrs
| 10>   coords
| 11>     Pd 0.0 0.0 0.0
| 12>   end
| 13> end
| 14> %basis
| 15>   gtoname "/cluster/home/ambr/projects/zora/row5/calcs_gto/Pd_ano-r3.basis"
| 16>   delECP Pd
| 17> end
| 18> %plots
| 19>   format gaussian_cube
| 20>   dim1 120
| 21>   dim2 120
| 22>   dim3 120
| 23>   MO("Pd_ano-r3_pbe_phi_a_scf_0_re.cube",0,0);
| 24>   MO("Pd_ano-r3_pbe_phi_a_scf_1_re.cube",1,0);
| 25>   MO("Pd_ano-r3_pbe_phi_a_scf_2_re.cube",2,0);
| 26>   MO("Pd_ano-r3_pbe_phi_a_scf_3_re.cube",3,0);
| 27>   MO("Pd_ano-r3_pbe_phi_a_scf_4_re.cube",4,0);
| 28>   MO("Pd_ano-r3_pbe_phi_a_scf_5_re.cube",5,0);
| 29>   MO("Pd_ano-r3_pbe_phi_a_scf_6_re.cube",6,0);
| 30>   MO("Pd_ano-r3_pbe_phi_a_scf_7_re.cube",7,0);
| 31>   MO("Pd_ano-r3_pbe_phi_a_scf_8_re.cube",8,0);
| 32>   MO("Pd_ano-r3_pbe_phi_a_scf_9_re.cube",9,0);
| 33>   MO("Pd_ano-r3_pbe_phi_a_scf_10_re.cube",10,0);
| 34>   MO("Pd_ano-r3_pbe_phi_a_scf_11_re.cube",11,0);
| 35>   MO("Pd_ano-r3_pbe_phi_a_scf_12_re.cube",12,0);
| 36>   MO("Pd_ano-r3_pbe_phi_a_scf_13_re.cube",13,0);
| 37>   MO("Pd_ano-r3_pbe_phi_a_scf_14_re.cube",14,0);
| 38>   MO("Pd_ano-r3_pbe_phi_a_scf_15_re.cube",15,0);
| 39>   MO("Pd_ano-r3_pbe_phi_a_scf_16_re.cube",16,0);
| 40>   MO("Pd_ano-r3_pbe_phi_a_scf_17_re.cube",17,0);
| 41>   MO("Pd_ano-r3_pbe_phi_a_scf_18_re.cube",18,0);
| 42>   MO("Pd_ano-r3_pbe_phi_a_scf_19_re.cube",19,0);
| 43>   MO("Pd_ano-r3_pbe_phi_a_scf_20_re.cube",20,0);
| 44>   MO("Pd_ano-r3_pbe_phi_a_scf_21_re.cube",21,0);
| 45>   MO("Pd_ano-r3_pbe_phi_a_scf_22_re.cube",22,0);
| 46>   MO("Pd_ano-r3_pbe_phi_b_scf_0_re.cube",0,1);
| 47>   MO("Pd_ano-r3_pbe_phi_b_scf_1_re.cube",1,1);
| 48>   MO("Pd_ano-r3_pbe_phi_b_scf_2_re.cube",2,1);
| 49>   MO("Pd_ano-r3_pbe_phi_b_scf_3_re.cube",3,1);
| 50>   MO("Pd_ano-r3_pbe_phi_b_scf_4_re.cube",4,1);
| 51>   MO("Pd_ano-r3_pbe_phi_b_scf_5_re.cube",5,1);
| 52>   MO("Pd_ano-r3_pbe_phi_b_scf_6_re.cube",6,1);
| 53>   MO("Pd_ano-r3_pbe_phi_b_scf_7_re.cube",7,1);
| 54>   MO("Pd_ano-r3_pbe_phi_b_scf_8_re.cube",8,1);
| 55>   MO("Pd_ano-r3_pbe_phi_b_scf_9_re.cube",9,1);
| 56>   MO("Pd_ano-r3_pbe_phi_b_scf_10_re.cube",10,1);
| 57>   MO("Pd_ano-r3_pbe_phi_b_scf_11_re.cube",11,1);
| 58>   MO("Pd_ano-r3_pbe_phi_b_scf_12_re.cube",12,1);
| 59>   MO("Pd_ano-r3_pbe_phi_b_scf_13_re.cube",13,1);
| 60>   MO("Pd_ano-r3_pbe_phi_b_scf_14_re.cube",14,1);
| 61>   MO("Pd_ano-r3_pbe_phi_b_scf_15_re.cube",15,1);
| 62>   MO("Pd_ano-r3_pbe_phi_b_scf_16_re.cube",16,1);
| 63>   MO("Pd_ano-r3_pbe_phi_b_scf_17_re.cube",17,1);
| 64>   MO("Pd_ano-r3_pbe_phi_b_scf_18_re.cube",18,1);
| 65>   MO("Pd_ano-r3_pbe_phi_b_scf_19_re.cube",19,1);
| 66>   MO("Pd_ano-r3_pbe_phi_b_scf_20_re.cube",20,1);
| 67>   MO("Pd_ano-r3_pbe_phi_b_scf_21_re.cube",21,1);
| 68>   MO("Pd_ano-r3_pbe_phi_b_scf_22_re.cube",22,1);
| 69> endd                         ****END OF INPUT****

CARTESIAN COORDINATES (ANGSTROEM)
---------------------------------
  Pd     0.000000    0.000000    0.000000

 Total Charge           Charge          ....    0
 Multiplicity           Mult            ....    1
 Number of Electrons    NEL             ....   46
 Basis Dimension        Dim             ....  101

ORBITAL ENERGIES
----------------
                 SPIN UP ORBITALS
  NO   OCC          E(Eh)            E(eV)
   0   1.0000    -823.569870    -22410.4755
   1   1.0000    -117.068270     -3185.5896
   2   1.0000    -113.717777     -3094.4180
   3   1.0000    -113.717777     -3094.4180
   4   1.0000    -113.717777     -3094.4180
   5   1.0000     -20.797458      -565.9276
   6   1.0000     -18.543256      -504.5876
   7   1.0000     -18.543256      -504.5876
   8   1.0000     -18.543256      -504.5876
   9   1.0000     -12.197582      -331.9131
  10   1.0000     -12.197582      -331.9131
  11   1.0000     -12.197582      -331.9131
  12   1.0000     -12.197582      -331.9131
  13   1.0000     -12.197582      -331.9131
  14   1.0000      -2.626762       -71.4778
  15   1.0000      -1.791585       -48.7515
  16   1.0000      -1.791585       -48.7515
  17   1.0000      -1.791585       -48.7515
  18   1.0000      -0.145561        -3.9609
  19   1.0000      -0.145561        -3.9609
  20   1.0000      -0.145561        -3.9609
  21   1.0000      -0.145561        -3.9609
  22   1.0000      -0.145561        -3.9609
  23   0.0000      -0.078306        -2.1308
  24   0.0000       0.149018         4.0550
  25   0.0000       0.149018         4.0550
  26   0.0000       0.149018         4.0550
  27   0.0000       0.306722         8.3463

                 SPIN DOWN ORBITALS
  NO   OCC          E(Eh)            E(eV)
   0   1.0000    -823.569870    -22410.4755
   1   1.0000    -117.068270     -3185.5896
   2   1.0000    -113.717777     -3094.4180
   3   1.0000    -113.717777     -3094.4180
   4   1.0000    -113.717777     -3094.4180
   5   1.0000     -20.797458      -565.9276
   6   1.0000     -18.543256      -504.5876
   7   1.0000     -18.543256      -504.5876
   8   1.0000     -18.543256      -504.5876
   9   1.0000     -12.197582      -331.9131
  10   1.0000     -12.197582      -331.9131
  11   1.0000     -12.197582      -331.9131
  12   1.0000     -12.197582      -331.9131
  13   1.0000     -12.197582      -331.9131
  14   1.0000      -2.626762       -71.4778
  15   1.0000      -1.791585       -48.7515
  16   1.0000      -1.791585       -48.7515
  17   1.0000      -1.791585       -48.7515
  18   1.0000      -0.145561        -3.9609
  19   1.0000      -0.145561        -3.9609
  20   1.0000      -0.145561        -3.9609
  21   1.0000      -0.145561        -3.9609
  22   1.0000      -0.145561        -3.9609
  23   0.0000      -0.078306        -2.1308
  24   0.0000       0.149018         4.0550
  25   0.0000       0.149018         4.0550
  26   0.0000       0.149018         4.0550
  27   0.0000       0.306722         8.3463

MULLIKEN ATOMIC CHARGES AND SPIN POPULATIONS
--------------------------------------------
   0 Pd:   -0.000000    0.000000
Sum of atomic charges         :   -0.0000000

LOEWDIN ATOMIC CHARGES AND SPIN POPULATIONS
-------------------------------------------
   0 Pd:   -0.000000    0.000000

FINAL SINGLE POINT ENERGY     -4853.993712658926

DIPOLE MOMENT
-------------
                                X             Y             Z
Electronic contribution:      0.00000       0.00000       0.00000
Nuclear contribution   :      0.00000       0.00000       0.00000
                        -----------------------------------------
Total Dipole Moment    :      0.00000       0.00000       0.00000
                        -----------------------------------------
Magnitude (a.u.)       :      0.00000
Magnitude (Debye)      :      0.00000

Rotational constants in cm-1:     0.000000     0.000000     0.000000
Rotational constants in MHz :     0.000000     0.000000     0.000000

                             ****ORCA TERMINATED NORMALLY****
TOTAL RUN TIME: 0 days 0 hours 18 minutes 17 seconds 258 msec
