                         Program Version 5.0.1 -  RELEASE  -
|  1> !uks pbe nori verytightscf soscf
|  2>
|  3> %pal
|  4>   nprocs 32
|  5> end
|  6> %coords
|  7>   charge 0
|  8>   mult 2
|  9>   units bohrs
| 10>   coords
| 11>     Rb 0.0 0.0 0.0
| 12>   end
| 13> end
| 14> %basis
| 15>   gtoname "/cluster/home/ambr/projects/zora/row5/calcs_gto/Rb_ano-r3.basis"
| 16>   delECP Rb
| 17> end
| 18> %plots
| 19>   format gaussian_cube
| 20>   dim1 120
| 21>   dim2 120
| 22>   dim3 120
| 23>   MO("Rb_ano-r3_pbe_phi_a_scf_0_re.cube",0,0);
| 24>   MO("Rb_ano-r3_pbe_phi_a_scf_1_re.cube",1,0);
| 25>   MO("Rb_ano-r3_pbe_phi_a_scf_2_re.cube",2,0);
| 26>   MO("Rb_ano-r3_pbe_phi_a_scf_3_re.cube",3,0);
| 27>   MO("Rb_ano-r3_pbe_phi_a_scf_4_re.cube",4,0);
| 28>   MO("Rb_ano-r3_pbe_phi_a_scf_5_re.cube",5,0);
| 29>   MO("Rb_ano-r3_pbe_phi_a_scf_6_re.cube",6,0);
| 30>   MO("Rb_ano-r3_pbe_phi_a_scf_7_re.cube",7,0);
| 31>   MO("Rb_ano-r3_pbe_phi_a_scf_8_re.cube",8,0);
| 32>   MO("Rb_ano-r3_pbe_phi_a_scf_9_re.cube",9,0);
| 33>   MO("Rb_ano-r3_pbe_phi_a_scf_10_re.cube",10,0);
| 34>   MO("Rb_ano-r3_pbe_phi_a_scf_11_re.cube",11,0);
| 35>   MO("Rb_ano-r3_pbe_phi_a_scf_12_re.cube",12,0);
| 36>   MO("Rb_ano-r3_pbe_phi_a_scf_13_re.cube",13,0);
| 37>   MO("Rb_ano-r3_pbe_phi_a_scf_14_re.cube",14,0);
| 38>   MO("Rb_ano-r3_pbe_phi_a_scf_15_re.cube",15,0);
| 39>   MO("Rb_ano-r3_pbe_phi_a_scf_16_re.cube",16,0);
| 40>   MO("Rb_ano-r3_pbe_phi_a_scf_17_re.cube",17,0);
| 41>   MO("Rb_ano-r3_pbe_phi_a_scf_18_re.cube",18,0);
| 42>   MO("Rb_ano-r3_pbe_phi_b_scf_0_re.cube",0,1);
| 43>   MO("Rb_ano-r3_pbe_phi_b_scf_1_re.cube",1,1);
| 44>   MO("Rb_ano-r3_pbe_phi_b_scf_2_re.cube",2,1);
| 45>   MO("Rb_ano-r3_pbe_phi_b_scf_3_re.cube",3,1);
| 46>   MO("Rb_ano-r3_pbe_phi_b_scf_4_re.cube",4,1);
| 47>   MO("Rb_ano-r3_pbe_phi_b_scf_5_re.cube",5,1);
| 48>   MO("Rb_ano-r3_pbe_phi_b_scf_6_re.cube",6,1);
| 49>   MO("Rb_ano-r3_pbe_phi_b_scf_7_re.cube",7,1);
| 50>   MO("Rb_ano-r3_pbe_phi_b_scf_8_re.cube",8,1);
| 51>   MO("Rb_ano-r3_pbe_phi_b_scf_9_re.cube",9,1);
| 52>   MO("Rb_ano-r3_pbe_phi_b_scf_10_re.cube",10,1);
| 53>   MO("Rb_ano-r3_pbe_phi_b_scf_11_re.cube",11,1);
| 54>   MO("Rb_ano-r3_pbe_phi_b_scf_12_re.cube",12,1);
| 55>   MO("Rb_ano-r3_pbe_phi_b_scf_13_re.cube",13,1);
| 56>   MO("Rb_ano-r3_pbe_phi_b_scf_14_re.cube",14,1);
| 57>   MO("Rb_ano-r3_pbe_phi_b_scf_15_re.cube",15,1);
| 58>   MO("Rb_ano-r3_pbe_phi_b_scf_16_re.cube",16,1);
| 59>   MO("Rb_ano-r3_pbe_phi_b_scf_17_re.cube",17,1);
| 60> endd                         ****END OF INPUT****

CARTESIAN COORDINATES (ANGSTROEM)
---------------------------------
  Rb     0.000000    0.000000    0.000000

 Total Charge           Charge          ....    0
 Multiplicity           Mult            ....    2
 Number of Electrons    NEL             ....   37
 Basis Dimension        Dim             ....   68

ORBITAL ENERGIES
----------------
                 SPIN UP ORBITALS
  NO   OCC          E(Eh)            E(eV)
   0   1.0000    -530.200232    -14427.4818
   1   1.0000     -69.665215     -1895.6869
   2   1.0000     -64.452642     -1753.8456
   3   1.0000     -64.452642     -1753.8456
   4   1.0000     -64.452642     -1753.8456
   5   1.0000     -10.260338      -279.1980
   6   1.0000      -8.168901      -222.2871
   7   1.0000      -8.168901      -222.2871
   8   1.0000      -8.168901      -222.2871
   9   1.0000      -3.935352      -107.0864
  10   1.0000      -3.935352      -107.0864
  11   1.0000      -3.935352      -107.0864
  12   1.0000      -3.935352      -107.0864
  13   1.0000      -3.935352      -107.0864
  14   1.0000      -1.103421       -30.0256
  15   1.0000      -0.596907       -16.2427
  16   1.0000      -0.596907       -16.2427
  17   1.0000      -0.596907       -16.2427
  18   1.0000      -0.087676        -2.3858
  19   0.0000       0.002632         0.0716
  20   0.0000       0.002632         0.0716
  21   0.0000       0.002632         0.0716
  22   0.0000       0.046634         1.2690
  23   0.0000       0.046634         1.2690

                 SPIN DOWN ORBITALS
  NO   OCC          E(Eh)            E(eV)
   0   1.0000    -530.199926    -14427.4735
   1   1.0000     -69.665016     -1895.6815
   2   1.0000     -64.452467     -1753.8408
   3   1.0000     -64.452467     -1753.8408
   4   1.0000     -64.452467     -1753.8408
   5   1.0000     -10.260031      -279.1896
   6   1.0000      -8.168600      -222.2789
   7   1.0000      -8.168600      -222.2789
   8   1.0000      -8.168600      -222.2789
   9   1.0000      -3.935024      -107.0775
  10   1.0000      -3.935024      -107.0775
  11   1.0000      -3.935024      -107.0775
  12   1.0000      -3.935024      -107.0775
  13   1.0000      -3.935024      -107.0775
  14   1.0000      -1.101628       -29.9768
  15   1.0000      -0.593924       -16.1615
  16   1.0000      -0.593924       -16.1615
  17   1.0000      -0.593924       -16.1615
  18   0.0000      -0.055498        -1.5102
  19   0.0000       0.033026         0.8987
  20   0.0000       0.033026         0.8987
  21   0.0000       0.033026         0.8987
  22   0.0000       0.058576         1.5939

MULLIKEN ATOMIC CHARGES AND SPIN POPULATIONS
--------------------------------------------
   0 Rb:    0.000000    1.000000
Sum of atomic charges         :    0.0000000

LOEWDIN ATOMIC CHARGES AND SPIN POPULATIONS
-------------------------------------------
   0 Rb:   -0.000000    1.000000

FINAL SINGLE POINT ENERGY     -2915.962337950061

DIPOLE MOMENT
-------------
                                X             Y             Z
Electronic contribution:      0.00000      -0.00000      -0.00000
Nuclear contribution   :      0.00000       0.00000       0.00000
                        -----------------------------------------
Total Dipole Moment    :      0.00000      -0.00000      -0.00000
                        -----------------------------------------
Magnitude (a.u.)       :      0.00000
Magnitude (Debye)      :      0.00000

Rotational constants in cm-1:     0.000000     0.000000     0.000000
Rotational constants in MHz :     0.000000     0.000000     0.000000

                             ****ORCA TERMINATED NORMALLY****
TOTAL RUN TIME: 0 days 0 hours 5 minutes 21 seconds 882 msec
