                         Program Version 5.0.1 -  RELEASE  -
|  1> !uks pbe nori verytightscf soscf notrah
|  2>
|  3> %pal
|  4>   nprocs 32
|  5> end
|  6> %coords
|  7>   charge 0
|  8>   mult 4
|  9>   units bohrs
| 10>   coords
| 11>     Rh 0.0 0.0 0.0
| 12>   end
| 13> end
| 14> %basis
| 15>   gtoname "/cluster/home/ambr/projects/zora/row5/calcs_gto/Rh_ano-r3.basis"
| 16>   delECP Rh
| 17> end
| 18> %plots
| 19>   format gaussian_cube
| 20>   dim1 120
| 21>   dim2 120
| 22>   dim3 120
| 23>   MO("Rh_ano-r3_pbe_phi_a_scf_0_re.cube",0,0);
| 24>   MO("Rh_ano-r3_pbe_phi_a_scf_1_re.cube",1,0);
| 25>   MO("Rh_ano-r3_pbe_phi_a_scf_2_re.cube",2,0);
| 26>   MO("Rh_ano-r3_pbe_phi_a_scf_3_re.cube",3,0);
| 27>   MO("Rh_ano-r3_pbe_phi_a_scf_4_re.cube",4,0);
| 28>   MO("Rh_ano-r3_pbe_phi_a_scf_5_re.cube",5,0);
| 29>   MO("Rh_ano-r3_pbe_phi_a_scf_6_re.cube",6,0);
| 30>   MO("Rh_ano-r3_pbe_phi_a_scf_7_re.cube",7,0);
| 31>   MO("Rh_ano-r3_pbe_phi_a_scf_8_re.cube",8,0);
| 32>   MO("Rh_ano-r3_pbe_phi_a_scf_9_re.cube",9,0);
| 33>   MO("Rh_ano-r3_pbe_phi_a_scf_10_re.cube",10,0);
| 34>   MO("Rh_ano-r3_pbe_phi_a_scf_11_re.cube",11,0);
| 35>   MO("Rh_ano-r3_pbe_phi_a_scf_12_re.cube",12,0);
| 36>   MO("Rh_ano-r3_pbe_phi_a_scf_13_re.cube",13,0);
| 37>   MO("Rh_ano-r3_pbe_phi_a_scf_14_re.cube",14,0);
| 38>   MO("Rh_ano-r3_pbe_phi_a_scf_15_re.cube",15,0);
| 39>   MO("Rh_ano-r3_pbe_phi_a_scf_16_re.cube",16,0);
| 40>   MO("Rh_ano-r3_pbe_phi_a_scf_17_re.cube",17,0);
| 41>   MO("Rh_ano-r3_pbe_phi_a_scf_18_re.cube",18,0);
| 42>   MO("Rh_ano-r3_pbe_phi_a_scf_19_re.cube",19,0);
| 43>   MO("Rh_ano-r3_pbe_phi_a_scf_20_re.cube",20,0);
| 44>   MO("Rh_ano-r3_pbe_phi_a_scf_21_re.cube",21,0);
| 45>   MO("Rh_ano-r3_pbe_phi_a_scf_22_re.cube",22,0);
| 46>   MO("Rh_ano-r3_pbe_phi_a_scf_23_re.cube",23,0);
| 47>   MO("Rh_ano-r3_pbe_phi_b_scf_0_re.cube",0,1);
| 48>   MO("Rh_ano-r3_pbe_phi_b_scf_1_re.cube",1,1);
| 49>   MO("Rh_ano-r3_pbe_phi_b_scf_2_re.cube",2,1);
| 50>   MO("Rh_ano-r3_pbe_phi_b_scf_3_re.cube",3,1);
| 51>   MO("Rh_ano-r3_pbe_phi_b_scf_4_re.cube",4,1);
| 52>   MO("Rh_ano-r3_pbe_phi_b_scf_5_re.cube",5,1);
| 53>   MO("Rh_ano-r3_pbe_phi_b_scf_6_re.cube",6,1);
| 54>   MO("Rh_ano-r3_pbe_phi_b_scf_7_re.cube",7,1);
| 55>   MO("Rh_ano-r3_pbe_phi_b_scf_8_re.cube",8,1);
| 56>   MO("Rh_ano-r3_pbe_phi_b_scf_9_re.cube",9,1);
| 57>   MO("Rh_ano-r3_pbe_phi_b_scf_10_re.cube",10,1);
| 58>   MO("Rh_ano-r3_pbe_phi_b_scf_11_re.cube",11,1);
| 59>   MO("Rh_ano-r3_pbe_phi_b_scf_12_re.cube",12,1);
| 60>   MO("Rh_ano-r3_pbe_phi_b_scf_13_re.cube",13,1);
| 61>   MO("Rh_ano-r3_pbe_phi_b_scf_14_re.cube",14,1);
| 62>   MO("Rh_ano-r3_pbe_phi_b_scf_15_re.cube",15,1);
| 63>   MO("Rh_ano-r3_pbe_phi_b_scf_16_re.cube",16,1);
| 64>   MO("Rh_ano-r3_pbe_phi_b_scf_17_re.cube",17,1);
| 65>   MO("Rh_ano-r3_pbe_phi_b_scf_18_re.cube",18,1);
| 66>   MO("Rh_ano-r3_pbe_phi_b_scf_19_re.cube",19,1);
| 67>   MO("Rh_ano-r3_pbe_phi_b_scf_20_re.cube",20,1);
| 68> end
| 69>
| 70>                          ****END OF INPUT****

CARTESIAN COORDINATES (ANGSTROEM)
---------------------------------
  Rh     0.000000    0.000000    0.000000

 Total Charge           Charge          ....    0
 Multiplicity           Mult            ....    4
 Number of Electrons    NEL             ....   45
 Basis Dimension        Dim             ....  108

ORBITAL ENERGIES
----------------
                 SPIN UP ORBITALS
  NO   OCC          E(Eh)            E(eV)
   0   1.0000    -788.710707    -21461.9094
   1   1.0000    -111.454154     -3032.8217
   2   1.0000    -107.663475     -2929.6721
   3   1.0000    -107.663474     -2929.6721
   4   1.0000    -107.663474     -2929.6721
   5   1.0000     -19.659673      -534.9669
   6   1.0000     -17.385104      -473.0727
   7   1.0000     -17.385103      -473.0727
   8   1.0000     -17.385102      -473.0727
   9   1.0000     -11.282138      -307.0026
  10   1.0000     -11.282138      -307.0026
  11   1.0000     -11.271720      -306.7191
  12   1.0000     -11.271719      -306.7191
  13   1.0000     -11.271719      -306.7191
  14   1.0000      -2.633110       -71.6506
  15   1.0000      -1.821846       -49.5749
  16   1.0000      -1.821841       -49.5748
  17   1.0000      -1.821838       -49.5747
  18   1.0000      -0.280336        -7.6283
  19   1.0000      -0.280336        -7.6283
  20   1.0000      -0.249074        -6.7777
  21   1.0000      -0.249072        -6.7776
  22   1.0000      -0.249071        -6.7776
  23   1.0000      -0.147119        -4.0033
  24   0.0000       0.046365         1.2616
  25   0.0000       0.046368         1.2617
  26   0.0000       0.046369         1.2618
  27   0.0000       0.108839         2.9617
  28   0.0000       0.289296         7.8721

                 SPIN DOWN ORBITALS
  NO   OCC          E(Eh)            E(eV)
   0   1.0000    -788.709879    -21461.8869
   1   1.0000    -111.443011     -3032.5185
   2   1.0000    -107.655103     -2929.4443
   3   1.0000    -107.655103     -2929.4443
   4   1.0000    -107.655102     -2929.4443
   5   1.0000     -19.652971      -534.7845
   6   1.0000     -17.378068      -472.8813
   7   1.0000     -17.378067      -472.8812
   8   1.0000     -17.378066      -472.8812
   9   1.0000     -11.266159      -306.5678
  10   1.0000     -11.266158      -306.5677
  11   1.0000     -11.266157      -306.5677
  12   1.0000     -11.264616      -306.5258
  13   1.0000     -11.264616      -306.5258
  14   1.0000      -2.578750       -70.1714
  15   1.0000      -1.766466       -48.0680
  16   1.0000      -1.766464       -48.0679
  17   1.0000      -1.766462       -48.0679
  18   1.0000      -0.216058        -5.8792
  19   1.0000      -0.216056        -5.8792
  20   1.0000      -0.216055        -5.8791
  21   0.0000      -0.186411        -5.0725
  22   0.0000      -0.186400        -5.0722
  23   0.0000      -0.106245        -2.8911
  24   0.0000       0.089344         2.4312
  25   0.0000       0.089366         2.4318

MULLIKEN ATOMIC CHARGES AND SPIN POPULATIONS
--------------------------------------------
   0 Rh:    0.000000    3.000000
Sum of atomic charges         :    0.0000000

LOEWDIN ATOMIC CHARGES AND SPIN POPULATIONS
-------------------------------------------
   0 Rh:   -0.000000    3.000000

FINAL SINGLE POINT ENERGY     -4612.201065634627

DIPOLE MOMENT
-------------
                                X             Y             Z
Electronic contribution:     -0.00000      -0.00000      -0.00000
Nuclear contribution   :      0.00000       0.00000       0.00000
                        -----------------------------------------
Total Dipole Moment    :     -0.00000      -0.00000      -0.00000
                        -----------------------------------------
Magnitude (a.u.)       :      0.00000
Magnitude (Debye)      :      0.00000

Rotational constants in cm-1:     0.000000     0.000000     0.000000
Rotational constants in MHz :     0.000000     0.000000     0.000000

                             ****ORCA TERMINATED NORMALLY****
TOTAL RUN TIME: 0 days 0 hours 37 minutes 8 seconds 934 msec
