                         Program Version 5.0.1 -  RELEASE  -
|  1> !uks pbe nori verytightscf soscf notrah
|  2>
|  3> %pal
|  4>   nprocs 32
|  5> end
|  6> %coords
|  7>   charge 0
|  8>   mult 5
|  9>   units bohrs
| 10>   coords
| 11>     Ru 0.0 0.0 0.0
| 12>   end
| 13> end
| 14> %basis
| 15>   gtoname "/cluster/home/ambr/projects/zora/row5/calcs_gto/Ru_ano-r3.basis"
| 16>   delECP Ru
| 17> end
| 18> %plots
| 19>   format gaussian_cube
| 20>   dim1 120
| 21>   dim2 120
| 22>   dim3 120
| 23>   MO("Ru_ano-r3_pbe_phi_a_scf_0_re.cube",0,0);
| 24>   MO("Ru_ano-r3_pbe_phi_a_scf_1_re.cube",1,0);
| 25>   MO("Ru_ano-r3_pbe_phi_a_scf_2_re.cube",2,0);
| 26>   MO("Ru_ano-r3_pbe_phi_a_scf_3_re.cube",3,0);
| 27>   MO("Ru_ano-r3_pbe_phi_a_scf_4_re.cube",4,0);
| 28>   MO("Ru_ano-r3_pbe_phi_a_scf_5_re.cube",5,0);
| 29>   MO("Ru_ano-r3_pbe_phi_a_scf_6_re.cube",6,0);
| 30>   MO("Ru_ano-r3_pbe_phi_a_scf_7_re.cube",7,0);
| 31>   MO("Ru_ano-r3_pbe_phi_a_scf_8_re.cube",8,0);
| 32>   MO("Ru_ano-r3_pbe_phi_a_scf_9_re.cube",9,0);
| 33>   MO("Ru_ano-r3_pbe_phi_a_scf_10_re.cube",10,0);
| 34>   MO("Ru_ano-r3_pbe_phi_a_scf_11_re.cube",11,0);
| 35>   MO("Ru_ano-r3_pbe_phi_a_scf_12_re.cube",12,0);
| 36>   MO("Ru_ano-r3_pbe_phi_a_scf_13_re.cube",13,0);
| 37>   MO("Ru_ano-r3_pbe_phi_a_scf_14_re.cube",14,0);
| 38>   MO("Ru_ano-r3_pbe_phi_a_scf_15_re.cube",15,0);
| 39>   MO("Ru_ano-r3_pbe_phi_a_scf_16_re.cube",16,0);
| 40>   MO("Ru_ano-r3_pbe_phi_a_scf_17_re.cube",17,0);
| 41>   MO("Ru_ano-r3_pbe_phi_a_scf_18_re.cube",18,0);
| 42>   MO("Ru_ano-r3_pbe_phi_a_scf_19_re.cube",19,0);
| 43>   MO("Ru_ano-r3_pbe_phi_a_scf_20_re.cube",20,0);
| 44>   MO("Ru_ano-r3_pbe_phi_a_scf_21_re.cube",21,0);
| 45>   MO("Ru_ano-r3_pbe_phi_a_scf_22_re.cube",22,0);
| 46>   MO("Ru_ano-r3_pbe_phi_a_scf_23_re.cube",23,0);
| 47>   MO("Ru_ano-r3_pbe_phi_b_scf_0_re.cube",0,1);
| 48>   MO("Ru_ano-r3_pbe_phi_b_scf_1_re.cube",1,1);
| 49>   MO("Ru_ano-r3_pbe_phi_b_scf_2_re.cube",2,1);
| 50>   MO("Ru_ano-r3_pbe_phi_b_scf_3_re.cube",3,1);
| 51>   MO("Ru_ano-r3_pbe_phi_b_scf_4_re.cube",4,1);
| 52>   MO("Ru_ano-r3_pbe_phi_b_scf_5_re.cube",5,1);
| 53>   MO("Ru_ano-r3_pbe_phi_b_scf_6_re.cube",6,1);
| 54>   MO("Ru_ano-r3_pbe_phi_b_scf_7_re.cube",7,1);
| 55>   MO("Ru_ano-r3_pbe_phi_b_scf_8_re.cube",8,1);
| 56>   MO("Ru_ano-r3_pbe_phi_b_scf_9_re.cube",9,1);
| 57>   MO("Ru_ano-r3_pbe_phi_b_scf_10_re.cube",10,1);
| 58>   MO("Ru_ano-r3_pbe_phi_b_scf_11_re.cube",11,1);
| 59>   MO("Ru_ano-r3_pbe_phi_b_scf_12_re.cube",12,1);
| 60>   MO("Ru_ano-r3_pbe_phi_b_scf_13_re.cube",13,1);
| 61>   MO("Ru_ano-r3_pbe_phi_b_scf_14_re.cube",14,1);
| 62>   MO("Ru_ano-r3_pbe_phi_b_scf_15_re.cube",15,1);
| 63>   MO("Ru_ano-r3_pbe_phi_b_scf_16_re.cube",16,1);
| 64>   MO("Ru_ano-r3_pbe_phi_b_scf_17_re.cube",17,1);
| 65>   MO("Ru_ano-r3_pbe_phi_b_scf_18_re.cube",18,1);
| 66>   MO("Ru_ano-r3_pbe_phi_b_scf_19_re.cube",19,1);
| 67> end
| 68>
| 69>                          ****END OF INPUT****

CARTESIAN COORDINATES (ANGSTROEM)
---------------------------------
  Ru     0.000000    0.000000    0.000000

 Total Charge           Charge          ....    0
 Multiplicity           Mult            ....    5
 Number of Electrons    NEL             ....   44
 Basis Dimension        Dim             ....  101

ORBITAL ENERGIES
----------------
                 SPIN UP ORBITALS
  NO   OCC          E(Eh)            E(eV)
   0   1.0000    -754.456806    -20529.8134
   1   1.0000    -105.923587     -2882.3273
   2   1.0000    -101.717620     -2767.8772
   3   1.0000    -101.717619     -2767.8771
   4   1.0000    -101.717618     -2767.8771
   5   1.0000     -18.448706      -502.0148
   6   1.0000     -16.120397      -438.6583
   7   1.0000     -16.120395      -438.6582
   8   1.0000     -16.120392      -438.6582
   9   1.0000     -10.251055      -278.9454
  10   1.0000     -10.251053      -278.9453
  11   1.0000     -10.251052      -278.9453
  12   1.0000     -10.241709      -278.6911
  13   1.0000     -10.241709      -278.6911
  14   1.0000      -2.481242       -67.5180
  15   1.0000      -1.688651       -45.9505
  16   1.0000      -1.688645       -45.9504
  17   1.0000      -1.688639       -45.9502
  18   1.0000      -0.248516        -6.7625
  19   1.0000      -0.248514        -6.7624
  20   1.0000      -0.248512        -6.7623
  21   1.0000      -0.219482        -5.9724
  22   1.0000      -0.219481        -5.9724
  23   1.0000      -0.148452        -4.0396
  24   0.0000       0.028788         0.7834
  25   0.0000       0.028791         0.7834
  26   0.0000       0.028793         0.7835
  27   0.0000       0.160779         4.3750
  28   0.0000       0.242641         6.6026

                 SPIN DOWN ORBITALS
  NO   OCC          E(Eh)            E(eV)
   0   1.0000    -754.456145    -20529.7954
   1   1.0000    -105.908795     -2881.9248
   2   1.0000    -101.706619     -2767.5778
   3   1.0000    -101.706619     -2767.5778
   4   1.0000    -101.706618     -2767.5778
   5   1.0000     -18.440186      -501.7830
   6   1.0000     -16.111116      -438.4058
   7   1.0000     -16.111114      -438.4057
   8   1.0000     -16.111112      -438.4056
   9   1.0000     -10.234336      -278.4904
  10   1.0000     -10.234336      -278.4904
  11   1.0000     -10.232984      -278.4537
  12   1.0000     -10.232983      -278.4536
  13   1.0000     -10.232982      -278.4536
  14   1.0000      -2.404586       -65.4321
  15   1.0000      -1.610058       -43.8119
  16   1.0000      -1.610056       -43.8118
  17   1.0000      -1.610054       -43.8118
  18   1.0000      -0.174237        -4.7412
  19   1.0000      -0.174236        -4.7412
  20   0.0000      -0.144501        -3.9321
  21   0.0000      -0.144493        -3.9319
  22   0.0000      -0.144478        -3.9314
  23   0.0000      -0.098756        -2.6873
  24   0.0000       0.080710         2.1962

MULLIKEN ATOMIC CHARGES AND SPIN POPULATIONS
--------------------------------------------
   0 Ru:   -0.000000    4.000000
Sum of atomic charges         :   -0.0000000

LOEWDIN ATOMIC CHARGES AND SPIN POPULATIONS
-------------------------------------------
   0 Ru:   -0.000000    4.000000

FINAL SINGLE POINT ENERGY     -4377.418205548139

DIPOLE MOMENT
-------------
                                X             Y             Z
Electronic contribution:      0.00000      -0.00000       0.00000
Nuclear contribution   :      0.00000       0.00000       0.00000
                        -----------------------------------------
Total Dipole Moment    :      0.00000      -0.00000       0.00000
                        -----------------------------------------
Magnitude (a.u.)       :      0.00000
Magnitude (Debye)      :      0.00000

Rotational constants in cm-1:     0.000000     0.000000     0.000000
Rotational constants in MHz :     0.000000     0.000000     0.000000

                             ****ORCA TERMINATED NORMALLY****
TOTAL RUN TIME: 0 days 0 hours 35 minutes 35 seconds 790 msec
