                         Program Version 5.0.1 -  RELEASE  -
|  1> !uks pbe nori verytightscf soscf
|  2>
|  3> %pal
|  4>   nprocs 32
|  5> end
|  6> %coords
|  7>   charge 0
|  8>   mult 4
|  9>   units bohrs
| 10>   coords
| 11>     Sb 0.0 0.0 0.0
| 12>   end
| 13> end
| 14> %basis
| 15>   gtoname "/cluster/home/ambr/projects/zora/row5/calcs_gto/Sb_ano-r3.basis"
| 16>   delECP Sb
| 17> end
| 18> %plots
| 19>   format gaussian_cube
| 20>   dim1 120
| 21>   dim2 120
| 22>   dim3 120
| 23>   MO("Sb_ano-r3_pbe_phi_a_scf_0_re.cube",0,0);
| 24>   MO("Sb_ano-r3_pbe_phi_a_scf_1_re.cube",1,0);
| 25>   MO("Sb_ano-r3_pbe_phi_a_scf_2_re.cube",2,0);
| 26>   MO("Sb_ano-r3_pbe_phi_a_scf_3_re.cube",3,0);
| 27>   MO("Sb_ano-r3_pbe_phi_a_scf_4_re.cube",4,0);
| 28>   MO("Sb_ano-r3_pbe_phi_a_scf_5_re.cube",5,0);
| 29>   MO("Sb_ano-r3_pbe_phi_a_scf_6_re.cube",6,0);
| 30>   MO("Sb_ano-r3_pbe_phi_a_scf_7_re.cube",7,0);
| 31>   MO("Sb_ano-r3_pbe_phi_a_scf_8_re.cube",8,0);
| 32>   MO("Sb_ano-r3_pbe_phi_a_scf_9_re.cube",9,0);
| 33>   MO("Sb_ano-r3_pbe_phi_a_scf_10_re.cube",10,0);
| 34>   MO("Sb_ano-r3_pbe_phi_a_scf_11_re.cube",11,0);
| 35>   MO("Sb_ano-r3_pbe_phi_a_scf_12_re.cube",12,0);
| 36>   MO("Sb_ano-r3_pbe_phi_a_scf_13_re.cube",13,0);
| 37>   MO("Sb_ano-r3_pbe_phi_a_scf_14_re.cube",14,0);
| 38>   MO("Sb_ano-r3_pbe_phi_a_scf_15_re.cube",15,0);
| 39>   MO("Sb_ano-r3_pbe_phi_a_scf_16_re.cube",16,0);
| 40>   MO("Sb_ano-r3_pbe_phi_a_scf_17_re.cube",17,0);
| 41>   MO("Sb_ano-r3_pbe_phi_a_scf_18_re.cube",18,0);
| 42>   MO("Sb_ano-r3_pbe_phi_a_scf_19_re.cube",19,0);
| 43>   MO("Sb_ano-r3_pbe_phi_a_scf_20_re.cube",20,0);
| 44>   MO("Sb_ano-r3_pbe_phi_a_scf_21_re.cube",21,0);
| 45>   MO("Sb_ano-r3_pbe_phi_a_scf_22_re.cube",22,0);
| 46>   MO("Sb_ano-r3_pbe_phi_a_scf_23_re.cube",23,0);
| 47>   MO("Sb_ano-r3_pbe_phi_a_scf_24_re.cube",24,0);
| 48>   MO("Sb_ano-r3_pbe_phi_a_scf_25_re.cube",25,0);
| 49>   MO("Sb_ano-r3_pbe_phi_a_scf_26_re.cube",26,0);
| 50>   MO("Sb_ano-r3_pbe_phi_b_scf_0_re.cube",0,1);
| 51>   MO("Sb_ano-r3_pbe_phi_b_scf_1_re.cube",1,1);
| 52>   MO("Sb_ano-r3_pbe_phi_b_scf_2_re.cube",2,1);
| 53>   MO("Sb_ano-r3_pbe_phi_b_scf_3_re.cube",3,1);
| 54>   MO("Sb_ano-r3_pbe_phi_b_scf_4_re.cube",4,1);
| 55>   MO("Sb_ano-r3_pbe_phi_b_scf_5_re.cube",5,1);
| 56>   MO("Sb_ano-r3_pbe_phi_b_scf_6_re.cube",6,1);
| 57>   MO("Sb_ano-r3_pbe_phi_b_scf_7_re.cube",7,1);
| 58>   MO("Sb_ano-r3_pbe_phi_b_scf_8_re.cube",8,1);
| 59>   MO("Sb_ano-r3_pbe_phi_b_scf_9_re.cube",9,1);
| 60>   MO("Sb_ano-r3_pbe_phi_b_scf_10_re.cube",10,1);
| 61>   MO("Sb_ano-r3_pbe_phi_b_scf_11_re.cube",11,1);
| 62>   MO("Sb_ano-r3_pbe_phi_b_scf_12_re.cube",12,1);
| 63>   MO("Sb_ano-r3_pbe_phi_b_scf_13_re.cube",13,1);
| 64>   MO("Sb_ano-r3_pbe_phi_b_scf_14_re.cube",14,1);
| 65>   MO("Sb_ano-r3_pbe_phi_b_scf_15_re.cube",15,1);
| 66>   MO("Sb_ano-r3_pbe_phi_b_scf_16_re.cube",16,1);
| 67>   MO("Sb_ano-r3_pbe_phi_b_scf_17_re.cube",17,1);
| 68>   MO("Sb_ano-r3_pbe_phi_b_scf_18_re.cube",18,1);
| 69>   MO("Sb_ano-r3_pbe_phi_b_scf_19_re.cube",19,1);
| 70>   MO("Sb_ano-r3_pbe_phi_b_scf_20_re.cube",20,1);
| 71>   MO("Sb_ano-r3_pbe_phi_b_scf_21_re.cube",21,1);
| 72>   MO("Sb_ano-r3_pbe_phi_b_scf_22_re.cube",22,1);
| 73>   MO("Sb_ano-r3_pbe_phi_b_scf_23_re.cube",23,1);
| 74> endd                         ****END OF INPUT****

CARTESIAN COORDINATES (ANGSTROEM)
---------------------------------
  Sb     0.000000    0.000000    0.000000

 Total Charge           Charge          ....    0
 Multiplicity           Mult            ....    4
 Number of Electrons    NEL             ....   51
 Basis Dimension        Dim             ....  104

ORBITAL ENERGIES
----------------
                 SPIN UP ORBITALS
  NO   OCC          E(Eh)            E(eV)
   0   1.0000   -1003.613699    -27309.7171
   1   1.0000    -147.842864     -4023.0089
   2   1.0000    -147.842864     -4023.0089
   3   1.0000    -147.842864     -4023.0089
   4   1.0000    -146.983106     -3999.6137
   5   1.0000     -28.133035      -765.5388
   6   1.0000     -26.854462      -730.7471
   7   1.0000     -26.854462      -730.7471
   8   1.0000     -26.854462      -730.7471
   9   1.0000     -19.356821      -526.7259
  10   1.0000     -19.356821      -526.7259
  11   1.0000     -19.356821      -526.7259
  12   1.0000     -19.356821      -526.7259
  13   1.0000     -19.356821      -526.7259
  14   1.0000      -4.428600      -120.5083
  15   1.0000      -3.681239      -100.1716
  16   1.0000      -3.681239      -100.1716
  17   1.0000      -3.681239      -100.1716
  18   1.0000      -1.358968       -36.9794
  19   1.0000      -1.358968       -36.9794
  20   1.0000      -1.358968       -36.9794
  21   1.0000      -1.358968       -36.9794
  22   1.0000      -1.358968       -36.9794
  23   1.0000      -0.401188       -10.9169
  24   1.0000      -0.213312        -5.8045
  25   1.0000      -0.213312        -5.8045
  26   1.0000      -0.213312        -5.8045
  27   0.0000       0.008797         0.2394
  28   0.0000       0.130607         3.5540
  29   0.0000       0.130607         3.5540
  30   0.0000       0.130607         3.5540
  31   0.0000       0.151930         4.1342

                 SPIN DOWN ORBITALS
  NO   OCC          E(Eh)            E(eV)
   0   1.0000   -1003.611103    -27309.6465
   1   1.0000    -147.840720     -4022.9505
   2   1.0000    -147.840720     -4022.9505
   3   1.0000    -147.840720     -4022.9505
   4   1.0000    -146.981966     -3999.5826
   5   1.0000     -28.130570      -765.4717
   6   1.0000     -26.851999      -730.6800
   7   1.0000     -26.851999      -730.6800
   8   1.0000     -26.851999      -730.6800
   9   1.0000     -19.354594      -526.6653
  10   1.0000     -19.354594      -526.6653
  11   1.0000     -19.354594      -526.6653
  12   1.0000     -19.354594      -526.6653
  13   1.0000     -19.354594      -526.6653
  14   1.0000      -4.423836      -120.3787
  15   1.0000      -3.675915      -100.0267
  16   1.0000      -3.675915      -100.0267
  17   1.0000      -3.675915      -100.0267
  18   1.0000      -1.349364       -36.7181
  19   1.0000      -1.349364       -36.7181
  20   1.0000      -1.349364       -36.7181
  21   1.0000      -1.349364       -36.7181
  22   1.0000      -1.349364       -36.7181
  23   1.0000      -0.329323        -8.9613
  24   0.0000      -0.143891        -3.9155
  25   0.0000      -0.143891        -3.9155
  26   0.0000      -0.143891        -3.9155
  27   0.0000       0.039860         1.0846
  28   0.0000       0.170663         4.6440

MULLIKEN ATOMIC CHARGES AND SPIN POPULATIONS
--------------------------------------------
   0 Sb:    0.000000    3.000000
Sum of atomic charges         :    0.0000000

LOEWDIN ATOMIC CHARGES AND SPIN POPULATIONS
-------------------------------------------
   0 Sb:    0.000000    3.000000

FINAL SINGLE POINT ENERGY     -6153.082695087161

DIPOLE MOMENT
-------------
                                X             Y             Z
Electronic contribution:      0.00000      -0.00000       0.00000
Nuclear contribution   :      0.00000       0.00000       0.00000
                        -----------------------------------------
Total Dipole Moment    :      0.00000      -0.00000       0.00000
                        -----------------------------------------
Magnitude (a.u.)       :      0.00000
Magnitude (Debye)      :      0.00000

Rotational constants in cm-1:     0.000000     0.000000     0.000000
Rotational constants in MHz :     0.000000     0.000000     0.000000

                             ****ORCA TERMINATED NORMALLY****
TOTAL RUN TIME: 0 days 0 hours 21 minutes 56 seconds 930 msec
