                         Program Version 5.0.1 -  RELEASE  -
|  1> !uks pbe nori verytightscf soscf
|  2>
|  3> %pal
|  4>   nprocs 32
|  5> end
|  6> %coords
|  7>   charge 0
|  8>   mult 3
|  9>   units bohrs
| 10>   coords
| 11>     Sn 0.0 0.0 0.0
| 12>   end
| 13> end
| 14> %basis
| 15>   gtoname "/cluster/home/ambr/projects/zora/row5/calcs_gto/Sn_ano-r3.basis"
| 16>   delECP Sn
| 17> end
| 18> %plots
| 19>   format gaussian_cube
| 20>   dim1 120
| 21>   dim2 120
| 22>   dim3 120
| 23>   MO("Sn_ano-r3_pbe_phi_a_scf_0_re.cube",0,0);
| 24>   MO("Sn_ano-r3_pbe_phi_a_scf_1_re.cube",1,0);
| 25>   MO("Sn_ano-r3_pbe_phi_a_scf_2_re.cube",2,0);
| 26>   MO("Sn_ano-r3_pbe_phi_a_scf_3_re.cube",3,0);
| 27>   MO("Sn_ano-r3_pbe_phi_a_scf_4_re.cube",4,0);
| 28>   MO("Sn_ano-r3_pbe_phi_a_scf_5_re.cube",5,0);
| 29>   MO("Sn_ano-r3_pbe_phi_a_scf_6_re.cube",6,0);
| 30>   MO("Sn_ano-r3_pbe_phi_a_scf_7_re.cube",7,0);
| 31>   MO("Sn_ano-r3_pbe_phi_a_scf_8_re.cube",8,0);
| 32>   MO("Sn_ano-r3_pbe_phi_a_scf_9_re.cube",9,0);
| 33>   MO("Sn_ano-r3_pbe_phi_a_scf_10_re.cube",10,0);
| 34>   MO("Sn_ano-r3_pbe_phi_a_scf_11_re.cube",11,0);
| 35>   MO("Sn_ano-r3_pbe_phi_a_scf_12_re.cube",12,0);
| 36>   MO("Sn_ano-r3_pbe_phi_a_scf_13_re.cube",13,0);
| 37>   MO("Sn_ano-r3_pbe_phi_a_scf_14_re.cube",14,0);
| 38>   MO("Sn_ano-r3_pbe_phi_a_scf_15_re.cube",15,0);
| 39>   MO("Sn_ano-r3_pbe_phi_a_scf_16_re.cube",16,0);
| 40>   MO("Sn_ano-r3_pbe_phi_a_scf_17_re.cube",17,0);
| 41>   MO("Sn_ano-r3_pbe_phi_a_scf_18_re.cube",18,0);
| 42>   MO("Sn_ano-r3_pbe_phi_a_scf_19_re.cube",19,0);
| 43>   MO("Sn_ano-r3_pbe_phi_a_scf_20_re.cube",20,0);
| 44>   MO("Sn_ano-r3_pbe_phi_a_scf_21_re.cube",21,0);
| 45>   MO("Sn_ano-r3_pbe_phi_a_scf_22_re.cube",22,0);
| 46>   MO("Sn_ano-r3_pbe_phi_a_scf_23_re.cube",23,0);
| 47>   MO("Sn_ano-r3_pbe_phi_a_scf_24_re.cube",24,0);
| 48>   MO("Sn_ano-r3_pbe_phi_a_scf_25_re.cube",25,0);
| 49>   MO("Sn_ano-r3_pbe_phi_b_scf_0_re.cube",0,1);
| 50>   MO("Sn_ano-r3_pbe_phi_b_scf_1_re.cube",1,1);
| 51>   MO("Sn_ano-r3_pbe_phi_b_scf_2_re.cube",2,1);
| 52>   MO("Sn_ano-r3_pbe_phi_b_scf_3_re.cube",3,1);
| 53>   MO("Sn_ano-r3_pbe_phi_b_scf_4_re.cube",4,1);
| 54>   MO("Sn_ano-r3_pbe_phi_b_scf_5_re.cube",5,1);
| 55>   MO("Sn_ano-r3_pbe_phi_b_scf_6_re.cube",6,1);
| 56>   MO("Sn_ano-r3_pbe_phi_b_scf_7_re.cube",7,1);
| 57>   MO("Sn_ano-r3_pbe_phi_b_scf_8_re.cube",8,1);
| 58>   MO("Sn_ano-r3_pbe_phi_b_scf_9_re.cube",9,1);
| 59>   MO("Sn_ano-r3_pbe_phi_b_scf_10_re.cube",10,1);
| 60>   MO("Sn_ano-r3_pbe_phi_b_scf_11_re.cube",11,1);
| 61>   MO("Sn_ano-r3_pbe_phi_b_scf_12_re.cube",12,1);
| 62>   MO("Sn_ano-r3_pbe_phi_b_scf_13_re.cube",13,1);
| 63>   MO("Sn_ano-r3_pbe_phi_b_scf_14_re.cube",14,1);
| 64>   MO("Sn_ano-r3_pbe_phi_b_scf_15_re.cube",15,1);
| 65>   MO("Sn_ano-r3_pbe_phi_b_scf_16_re.cube",16,1);
| 66>   MO("Sn_ano-r3_pbe_phi_b_scf_17_re.cube",17,1);
| 67>   MO("Sn_ano-r3_pbe_phi_b_scf_18_re.cube",18,1);
| 68>   MO("Sn_ano-r3_pbe_phi_b_scf_19_re.cube",19,1);
| 69>   MO("Sn_ano-r3_pbe_phi_b_scf_20_re.cube",20,1);
| 70>   MO("Sn_ano-r3_pbe_phi_b_scf_21_re.cube",21,1);
| 71>   MO("Sn_ano-r3_pbe_phi_b_scf_22_re.cube",22,1);
| 72>   MO("Sn_ano-r3_pbe_phi_b_scf_23_re.cube",23,1);
| 73> endd                         ****END OF INPUT****

CARTESIAN COORDINATES (ANGSTROEM)
---------------------------------
  Sn     0.000000    0.000000    0.000000

 Total Charge           Charge          ....    0
 Multiplicity           Mult            ....    3
 Number of Electrons    NEL             ....   50
 Basis Dimension        Dim             ....  104

ORBITAL ENERGIES
----------------
                 SPIN UP ORBITALS
  NO   OCC          E(Eh)            E(eV)
   0   1.0000    -966.785119    -26307.5605
   1   1.0000    -140.751349     -3830.0389
   2   1.0000    -140.511955     -3823.5247
   3   1.0000    -140.510398     -3823.4823
   4   1.0000    -140.510398     -3823.4823
   5   1.0000     -26.551025      -722.4901
   6   1.0000     -25.016229      -680.7262
   7   1.0000     -25.012370      -680.6212
   8   1.0000     -25.012370      -680.6212
   9   1.0000     -17.745313      -482.8745
  10   1.0000     -17.744442      -482.8508
  11   1.0000     -17.744442      -482.8508
  12   1.0000     -17.741810      -482.7792
  13   1.0000     -17.741810      -482.7792
  14   1.0000      -4.023512      -109.4853
  15   1.0000      -3.248869       -88.4062
  16   1.0000      -3.239175       -88.1424
  17   1.0000      -3.239175       -88.1424
  18   1.0000      -1.062124       -28.9019
  19   1.0000      -1.059786       -28.8383
  20   1.0000      -1.059786       -28.8383
  21   1.0000      -1.051740       -28.6193
  22   1.0000      -1.051740       -28.6193
  23   1.0000      -0.331643        -9.0245
  24   1.0000      -0.162863        -4.4317
  25   1.0000      -0.162863        -4.4317
  26   0.0000      -0.159715        -4.3461
  27   0.0000       0.003805         0.1035
  28   0.0000       0.114435         3.1139
  29   0.0000       0.114435         3.1139
  30   0.0000       0.114608         3.1186

                 SPIN DOWN ORBITALS
  NO   OCC          E(Eh)            E(eV)
   0   1.0000    -966.783812    -26307.5250
   1   1.0000    -140.750854     -3830.0255
   2   1.0000    -140.511497     -3823.5122
   3   1.0000    -140.509076     -3823.4463
   4   1.0000    -140.509076     -3823.4463
   5   1.0000     -26.549806      -722.4570
   6   1.0000     -25.015722      -680.7124
   7   1.0000     -25.010780      -680.5779
   8   1.0000     -25.010780      -680.5779
   9   1.0000     -17.744705      -482.8580
  10   1.0000     -17.743595      -482.8278
  11   1.0000     -17.743595      -482.8278
  12   1.0000     -17.740237      -482.7364
  13   1.0000     -17.740237      -482.7364
  14   1.0000      -4.021146      -109.4209
  15   1.0000      -3.247982       -88.3821
  16   1.0000      -3.235632       -88.0460
  17   1.0000      -3.235632       -88.0460
  18   1.0000      -1.059097       -28.8195
  19   1.0000      -1.055179       -28.7129
  20   1.0000      -1.055179       -28.7129
  21   1.0000      -1.043804       -28.4034
  22   1.0000      -1.043804       -28.4034
  23   1.0000      -0.288021        -7.8375
  24   0.0000      -0.138073        -3.7572
  25   0.0000      -0.108599        -2.9551
  26   0.0000      -0.108599        -2.9551
  27   0.0000       0.027100         0.7374
  28   0.0000       0.130370         3.5476

MULLIKEN ATOMIC CHARGES AND SPIN POPULATIONS
--------------------------------------------
   0 Sn:    0.000000    2.000000
Sum of atomic charges         :    0.0000000

LOEWDIN ATOMIC CHARGES AND SPIN POPULATIONS
-------------------------------------------
   0 Sn:    0.000000    2.000000

FINAL SINGLE POINT ENERGY     -5881.113528760194

DIPOLE MOMENT
-------------
                                X             Y             Z
Electronic contribution:      0.00000      -0.00000      -0.00000
Nuclear contribution   :      0.00000       0.00000       0.00000
                        -----------------------------------------
Total Dipole Moment    :      0.00000      -0.00000      -0.00000
                        -----------------------------------------
Magnitude (a.u.)       :      0.00000
Magnitude (Debye)      :      0.00000

Rotational constants in cm-1:     0.000000     0.000000     0.000000
Rotational constants in MHz :     0.000000     0.000000     0.000000

                             ****ORCA TERMINATED NORMALLY****
TOTAL RUN TIME: 0 days 0 hours 53 minutes 1 seconds 483 msec
