                         Program Version 5.0.1 -  RELEASE  -
|  1> !uks pbe nori verytightscf soscf
|  2>
|  3> %pal
|  4>   nprocs 32
|  5> end
|  6> %coords
|  7>   charge 0
|  8>   mult 1
|  9>   units bohrs
| 10>   coords
| 11>     Sr 0.0 0.0 0.0
| 12>   end
| 13> end
| 14> %basis
| 15>   gtoname "/cluster/home/ambr/projects/zora/row5/calcs_gto/Sr_ano-r3.basis"
| 16>   delECP Sr
| 17> end
| 18> %plots
| 19>   format gaussian_cube
| 20>   dim1 120
| 21>   dim2 120
| 22>   dim3 120
| 23>   MO("Sr_ano-r3_pbe_phi_a_scf_0_re.cube",0,0);
| 24>   MO("Sr_ano-r3_pbe_phi_a_scf_1_re.cube",1,0);
| 25>   MO("Sr_ano-r3_pbe_phi_a_scf_2_re.cube",2,0);
| 26>   MO("Sr_ano-r3_pbe_phi_a_scf_3_re.cube",3,0);
| 27>   MO("Sr_ano-r3_pbe_phi_a_scf_4_re.cube",4,0);
| 28>   MO("Sr_ano-r3_pbe_phi_a_scf_5_re.cube",5,0);
| 29>   MO("Sr_ano-r3_pbe_phi_a_scf_6_re.cube",6,0);
| 30>   MO("Sr_ano-r3_pbe_phi_a_scf_7_re.cube",7,0);
| 31>   MO("Sr_ano-r3_pbe_phi_a_scf_8_re.cube",8,0);
| 32>   MO("Sr_ano-r3_pbe_phi_a_scf_9_re.cube",9,0);
| 33>   MO("Sr_ano-r3_pbe_phi_a_scf_10_re.cube",10,0);
| 34>   MO("Sr_ano-r3_pbe_phi_a_scf_11_re.cube",11,0);
| 35>   MO("Sr_ano-r3_pbe_phi_a_scf_12_re.cube",12,0);
| 36>   MO("Sr_ano-r3_pbe_phi_a_scf_13_re.cube",13,0);
| 37>   MO("Sr_ano-r3_pbe_phi_a_scf_14_re.cube",14,0);
| 38>   MO("Sr_ano-r3_pbe_phi_a_scf_15_re.cube",15,0);
| 39>   MO("Sr_ano-r3_pbe_phi_a_scf_16_re.cube",16,0);
| 40>   MO("Sr_ano-r3_pbe_phi_a_scf_17_re.cube",17,0);
| 41>   MO("Sr_ano-r3_pbe_phi_a_scf_18_re.cube",18,0);
| 42>   MO("Sr_ano-r3_pbe_phi_b_scf_0_re.cube",0,1);
| 43>   MO("Sr_ano-r3_pbe_phi_b_scf_1_re.cube",1,1);
| 44>   MO("Sr_ano-r3_pbe_phi_b_scf_2_re.cube",2,1);
| 45>   MO("Sr_ano-r3_pbe_phi_b_scf_3_re.cube",3,1);
| 46>   MO("Sr_ano-r3_pbe_phi_b_scf_4_re.cube",4,1);
| 47>   MO("Sr_ano-r3_pbe_phi_b_scf_5_re.cube",5,1);
| 48>   MO("Sr_ano-r3_pbe_phi_b_scf_6_re.cube",6,1);
| 49>   MO("Sr_ano-r3_pbe_phi_b_scf_7_re.cube",7,1);
| 50>   MO("Sr_ano-r3_pbe_phi_b_scf_8_re.cube",8,1);
| 51>   MO("Sr_ano-r3_pbe_phi_b_scf_9_re.cube",9,1);
| 52>   MO("Sr_ano-r3_pbe_phi_b_scf_10_re.cube",10,1);
| 53>   MO("Sr_ano-r3_pbe_phi_b_scf_11_re.cube",11,1);
| 54>   MO("Sr_ano-r3_pbe_phi_b_scf_12_re.cube",12,1);
| 55>   MO("Sr_ano-r3_pbe_phi_b_scf_13_re.cube",13,1);
| 56>   MO("Sr_ano-r3_pbe_phi_b_scf_14_re.cube",14,1);
| 57>   MO("Sr_ano-r3_pbe_phi_b_scf_15_re.cube",15,1);
| 58>   MO("Sr_ano-r3_pbe_phi_b_scf_16_re.cube",16,1);
| 59>   MO("Sr_ano-r3_pbe_phi_b_scf_17_re.cube",17,1);
| 60>   MO("Sr_ano-r3_pbe_phi_b_scf_18_re.cube",18,1);
| 61> endd                         ****END OF INPUT****

CARTESIAN COORDINATES (ANGSTROEM)
---------------------------------
  Sr     0.000000    0.000000    0.000000

 Total Charge           Charge          ....    0
 Multiplicity           Mult            ....    1
 Number of Electrons    NEL             ....   38
 Basis Dimension        Dim             ....   90

ORBITAL ENERGIES
----------------
                 SPIN UP ORBITALS
  NO   OCC          E(Eh)            E(eV)
   0   1.0000    -560.396839    -15249.1733
   1   1.0000     -74.593521     -2029.7929
   2   1.0000     -69.383996     -1888.0345
   3   1.0000     -69.383996     -1888.0345
   4   1.0000     -69.383996     -1888.0345
   5   1.0000     -11.470630      -312.1317
   6   1.0000      -9.310818      -253.3602
   7   1.0000      -9.310818      -253.3602
   8   1.0000      -9.310818      -253.3602
   9   1.0000      -4.844050      -131.8133
  10   1.0000      -4.844050      -131.8133
  11   1.0000      -4.844050      -131.8133
  12   1.0000      -4.844050      -131.8133
  13   1.0000      -4.844050      -131.8133
  14   1.0000      -1.418978       -38.6123
  15   1.0000      -0.853611       -23.2279
  16   1.0000      -0.853611       -23.2279
  17   1.0000      -0.853611       -23.2279
  18   1.0000      -0.127116        -3.4590
  19   0.0000      -0.059746        -1.6258
  20   0.0000      -0.059746        -1.6258
  21   0.0000      -0.059746        -1.6258
  22   0.0000      -0.059746        -1.6258
  23   0.0000      -0.059746        -1.6258

                 SPIN DOWN ORBITALS
  NO   OCC          E(Eh)            E(eV)
   0   1.0000    -560.396839    -15249.1733
   1   1.0000     -74.593521     -2029.7929
   2   1.0000     -69.383996     -1888.0345
   3   1.0000     -69.383996     -1888.0345
   4   1.0000     -69.383996     -1888.0345
   5   1.0000     -11.470630      -312.1317
   6   1.0000      -9.310818      -253.3602
   7   1.0000      -9.310818      -253.3602
   8   1.0000      -9.310818      -253.3602
   9   1.0000      -4.844050      -131.8133
  10   1.0000      -4.844050      -131.8133
  11   1.0000      -4.844050      -131.8133
  12   1.0000      -4.844050      -131.8133
  13   1.0000      -4.844050      -131.8133
  14   1.0000      -1.418978       -38.6123
  15   1.0000      -0.853611       -23.2279
  16   1.0000      -0.853611       -23.2279
  17   1.0000      -0.853611       -23.2279
  18   1.0000      -0.127116        -3.4590
  19   0.0000      -0.059746        -1.6258
  20   0.0000      -0.059746        -1.6258
  21   0.0000      -0.059746        -1.6258
  22   0.0000      -0.059746        -1.6258
  23   0.0000      -0.059746        -1.6258

MULLIKEN ATOMIC CHARGES AND SPIN POPULATIONS
--------------------------------------------
   0 Sr:   -0.000000    0.000000
Sum of atomic charges         :   -0.0000000

LOEWDIN ATOMIC CHARGES AND SPIN POPULATIONS
-------------------------------------------
   0 Sr:    0.000000    0.000000

FINAL SINGLE POINT ENERGY     -3105.215832125241

DIPOLE MOMENT
-------------
                                X             Y             Z
Electronic contribution:      0.00000       0.00000      -0.00000
Nuclear contribution   :      0.00000       0.00000       0.00000
                        -----------------------------------------
Total Dipole Moment    :      0.00000       0.00000      -0.00000
                        -----------------------------------------
Magnitude (a.u.)       :      0.00000
Magnitude (Debye)      :      0.00000

Rotational constants in cm-1:     0.000000     0.000000     0.000000
Rotational constants in MHz :     0.000000     0.000000     0.000000

                             ****ORCA TERMINATED NORMALLY****
TOTAL RUN TIME: 0 days 0 hours 7 minutes 0 seconds 749 msec
