                         Program Version 5.0.1 -  RELEASE  -
|  1> !uks pbe nori verytightscf soscf notrah
|  2>
|  3> %pal
|  4>   nprocs 32
|  5> end
|  6> %coords
|  7>   charge 0
|  8>   mult 6
|  9>   units bohrs
| 10>   coords
| 11>     Tc 0.0 0.0 0.0
| 12>   end
| 13> end
| 14> %basis
| 15>   gtoname "/cluster/home/ambr/projects/zora/row5/calcs_gto/Tc_ano-r3.basis"
| 16>   delECP Tc
| 17> end
| 18> %plots
| 19>   format gaussian_cube
| 20>   dim1 120
| 21>   dim2 120
| 22>   dim3 120
| 23>   MO("Tc_ano-r3_pbe_phi_a_scf_0_re.cube",0,0);
| 24>   MO("Tc_ano-r3_pbe_phi_a_scf_1_re.cube",1,0);
| 25>   MO("Tc_ano-r3_pbe_phi_a_scf_2_re.cube",2,0);
| 26>   MO("Tc_ano-r3_pbe_phi_a_scf_3_re.cube",3,0);
| 27>   MO("Tc_ano-r3_pbe_phi_a_scf_4_re.cube",4,0);
| 28>   MO("Tc_ano-r3_pbe_phi_a_scf_5_re.cube",5,0);
| 29>   MO("Tc_ano-r3_pbe_phi_a_scf_6_re.cube",6,0);
| 30>   MO("Tc_ano-r3_pbe_phi_a_scf_7_re.cube",7,0);
| 31>   MO("Tc_ano-r3_pbe_phi_a_scf_8_re.cube",8,0);
| 32>   MO("Tc_ano-r3_pbe_phi_a_scf_9_re.cube",9,0);
| 33>   MO("Tc_ano-r3_pbe_phi_a_scf_10_re.cube",10,0);
| 34>   MO("Tc_ano-r3_pbe_phi_a_scf_11_re.cube",11,0);
| 35>   MO("Tc_ano-r3_pbe_phi_a_scf_12_re.cube",12,0);
| 36>   MO("Tc_ano-r3_pbe_phi_a_scf_13_re.cube",13,0);
| 37>   MO("Tc_ano-r3_pbe_phi_a_scf_14_re.cube",14,0);
| 38>   MO("Tc_ano-r3_pbe_phi_a_scf_15_re.cube",15,0);
| 39>   MO("Tc_ano-r3_pbe_phi_a_scf_16_re.cube",16,0);
| 40>   MO("Tc_ano-r3_pbe_phi_a_scf_17_re.cube",17,0);
| 41>   MO("Tc_ano-r3_pbe_phi_a_scf_18_re.cube",18,0);
| 42>   MO("Tc_ano-r3_pbe_phi_a_scf_19_re.cube",19,0);
| 43>   MO("Tc_ano-r3_pbe_phi_a_scf_20_re.cube",20,0);
| 44>   MO("Tc_ano-r3_pbe_phi_a_scf_21_re.cube",21,0);
| 45>   MO("Tc_ano-r3_pbe_phi_a_scf_22_re.cube",22,0);
| 46>   MO("Tc_ano-r3_pbe_phi_a_scf_23_re.cube",23,0);
| 47>   MO("Tc_ano-r3_pbe_phi_b_scf_0_re.cube",0,1);
| 48>   MO("Tc_ano-r3_pbe_phi_b_scf_1_re.cube",1,1);
| 49>   MO("Tc_ano-r3_pbe_phi_b_scf_2_re.cube",2,1);
| 50>   MO("Tc_ano-r3_pbe_phi_b_scf_3_re.cube",3,1);
| 51>   MO("Tc_ano-r3_pbe_phi_b_scf_4_re.cube",4,1);
| 52>   MO("Tc_ano-r3_pbe_phi_b_scf_5_re.cube",5,1);
| 53>   MO("Tc_ano-r3_pbe_phi_b_scf_6_re.cube",6,1);
| 54>   MO("Tc_ano-r3_pbe_phi_b_scf_7_re.cube",7,1);
| 55>   MO("Tc_ano-r3_pbe_phi_b_scf_8_re.cube",8,1);
| 56>   MO("Tc_ano-r3_pbe_phi_b_scf_9_re.cube",9,1);
| 57>   MO("Tc_ano-r3_pbe_phi_b_scf_10_re.cube",10,1);
| 58>   MO("Tc_ano-r3_pbe_phi_b_scf_11_re.cube",11,1);
| 59>   MO("Tc_ano-r3_pbe_phi_b_scf_12_re.cube",12,1);
| 60>   MO("Tc_ano-r3_pbe_phi_b_scf_13_re.cube",13,1);
| 61>   MO("Tc_ano-r3_pbe_phi_b_scf_14_re.cube",14,1);
| 62>   MO("Tc_ano-r3_pbe_phi_b_scf_15_re.cube",15,1);
| 63>   MO("Tc_ano-r3_pbe_phi_b_scf_16_re.cube",16,1);
| 64>   MO("Tc_ano-r3_pbe_phi_b_scf_17_re.cube",17,1);
| 65>   MO("Tc_ano-r3_pbe_phi_b_scf_18_re.cube",18,1);
| 66> end
| 67>
| 68>                          ****END OF INPUT****

CARTESIAN COORDINATES (ANGSTROEM)
---------------------------------
  Tc     0.000000    0.000000    0.000000

 Total Charge           Charge          ....    0
 Multiplicity           Mult            ....    6
 Number of Electrons    NEL             ....   43
 Basis Dimension        Dim             ....  101

ORBITAL ENERGIES
----------------
                 SPIN UP ORBITALS
  NO   OCC          E(Eh)            E(eV)
   0   1.0000    -720.583223    -19608.0664
   1   1.0000    -100.403931     -2732.1299
   2   1.0000     -95.897407     -2609.5011
   3   1.0000     -95.889237     -2609.2788
   4   1.0000     -95.889235     -2609.2787
   5   1.0000     -17.215603      -468.4604
   6   1.0000     -14.894362      -405.2962
   7   1.0000     -14.878333      -404.8600
   8   1.0000     -14.878330      -404.8599
   9   1.0000      -9.252892      -251.7840
  10   1.0000      -9.250198      -251.7107
  11   1.0000      -9.250197      -251.7107
  12   1.0000      -9.242106      -251.4905
  13   1.0000      -9.233908      -251.2674
  14   1.0000      -2.316488       -63.0349
  15   1.0000      -1.580093       -42.9965
  16   1.0000      -1.540598       -41.9218
  17   1.0000      -1.540588       -41.9215
  18   1.0000      -0.225809        -6.1446
  19   1.0000      -0.221172        -6.0184
  20   1.0000      -0.221167        -6.0183
  21   1.0000      -0.207578        -5.6485
  22   1.0000      -0.181478        -4.9383
  23   1.0000      -0.148599        -4.0436
  24   0.0000       0.012286         0.3343
  25   0.0000       0.026029         0.7083
  26   0.0000       0.026035         0.7084
  27   0.0000       0.112236         3.0541
  28   0.0000       0.202426         5.5083

                 SPIN DOWN ORBITALS
  NO   OCC          E(Eh)            E(eV)
   0   1.0000    -720.582759    -19608.0537
   1   1.0000    -100.386844     -2731.6649
   2   1.0000     -95.882599     -2609.0982
   3   1.0000     -95.877679     -2608.9643
   4   1.0000     -95.877677     -2608.9642
   5   1.0000     -17.205770      -468.1928
   6   1.0000     -14.881817      -404.9548
   7   1.0000     -14.868502      -404.5925
   8   1.0000     -14.868499      -404.5924
   9   1.0000      -9.235709      -251.3164
  10   1.0000      -9.232645      -251.2330
  11   1.0000      -9.232643      -251.2330
  12   1.0000      -9.224649      -251.0155
  13   1.0000      -9.223342      -250.9799
  14   1.0000      -2.221459       -60.4490
  15   1.0000      -1.463474       -39.8231
  16   1.0000      -1.451593       -39.4998
  17   1.0000      -1.451588       -39.4997
  18   1.0000      -0.124342        -3.3835
  19   0.0000      -0.114682        -3.1207
  20   0.0000      -0.109769        -2.9870
  21   0.0000      -0.109760        -2.9867
  22   0.0000      -0.090932        -2.4744
  23   0.0000      -0.083238        -2.2650

MULLIKEN ATOMIC CHARGES AND SPIN POPULATIONS
--------------------------------------------
   0 Tc:   -0.000000    5.000000
Sum of atomic charges         :   -0.0000000

LOEWDIN ATOMIC CHARGES AND SPIN POPULATIONS
-------------------------------------------
   0 Tc:   -0.000000    5.000000

FINAL SINGLE POINT ENERGY     -4148.964422337614

DIPOLE MOMENT
-------------
                                X             Y             Z
Electronic contribution:      0.00000      -0.00000       0.00000
Nuclear contribution   :      0.00000       0.00000       0.00000
                        -----------------------------------------
Total Dipole Moment    :      0.00000      -0.00000       0.00000
                        -----------------------------------------
Magnitude (a.u.)       :      0.00000
Magnitude (Debye)      :      0.00000

Rotational constants in cm-1:     0.000000     0.000000     0.000000
Rotational constants in MHz :     0.000000     0.000000     0.000000

                             ****ORCA TERMINATED NORMALLY****
TOTAL RUN TIME: 0 days 0 hours 38 minutes 26 seconds 14 msec
