                         Program Version 5.0.1 -  RELEASE  -
|  1> !uks pbe nori verytightscf soscf
|  2>
|  3> %pal
|  4>   nprocs 32
|  5> end
|  6> %coords
|  7>   charge 0
|  8>   mult 3
|  9>   units bohrs
| 10>   coords
| 11>     Te 0.0 0.0 0.0
| 12>   end
| 13> end
| 14> %basis
| 15>   gtoname "/cluster/home/ambr/projects/zora/row5/calcs_gto/Te_ano-r3.basis"
| 16>   delECP Te
| 17> end
| 18> %plots
| 19>   format gaussian_cube
| 20>   dim1 120
| 21>   dim2 120
| 22>   dim3 120
| 23>   MO("Te_ano-r3_pbe_phi_a_scf_0_re.cube",0,0);
| 24>   MO("Te_ano-r3_pbe_phi_a_scf_1_re.cube",1,0);
| 25>   MO("Te_ano-r3_pbe_phi_a_scf_2_re.cube",2,0);
| 26>   MO("Te_ano-r3_pbe_phi_a_scf_3_re.cube",3,0);
| 27>   MO("Te_ano-r3_pbe_phi_a_scf_4_re.cube",4,0);
| 28>   MO("Te_ano-r3_pbe_phi_a_scf_5_re.cube",5,0);
| 29>   MO("Te_ano-r3_pbe_phi_a_scf_6_re.cube",6,0);
| 30>   MO("Te_ano-r3_pbe_phi_a_scf_7_re.cube",7,0);
| 31>   MO("Te_ano-r3_pbe_phi_a_scf_8_re.cube",8,0);
| 32>   MO("Te_ano-r3_pbe_phi_a_scf_9_re.cube",9,0);
| 33>   MO("Te_ano-r3_pbe_phi_a_scf_10_re.cube",10,0);
| 34>   MO("Te_ano-r3_pbe_phi_a_scf_11_re.cube",11,0);
| 35>   MO("Te_ano-r3_pbe_phi_a_scf_12_re.cube",12,0);
| 36>   MO("Te_ano-r3_pbe_phi_a_scf_13_re.cube",13,0);
| 37>   MO("Te_ano-r3_pbe_phi_a_scf_14_re.cube",14,0);
| 38>   MO("Te_ano-r3_pbe_phi_a_scf_15_re.cube",15,0);
| 39>   MO("Te_ano-r3_pbe_phi_a_scf_16_re.cube",16,0);
| 40>   MO("Te_ano-r3_pbe_phi_a_scf_17_re.cube",17,0);
| 41>   MO("Te_ano-r3_pbe_phi_a_scf_18_re.cube",18,0);
| 42>   MO("Te_ano-r3_pbe_phi_a_scf_19_re.cube",19,0);
| 43>   MO("Te_ano-r3_pbe_phi_a_scf_20_re.cube",20,0);
| 44>   MO("Te_ano-r3_pbe_phi_a_scf_21_re.cube",21,0);
| 45>   MO("Te_ano-r3_pbe_phi_a_scf_22_re.cube",22,0);
| 46>   MO("Te_ano-r3_pbe_phi_a_scf_23_re.cube",23,0);
| 47>   MO("Te_ano-r3_pbe_phi_a_scf_24_re.cube",24,0);
| 48>   MO("Te_ano-r3_pbe_phi_a_scf_25_re.cube",25,0);
| 49>   MO("Te_ano-r3_pbe_phi_a_scf_26_re.cube",26,0);
| 50>   MO("Te_ano-r3_pbe_phi_b_scf_0_re.cube",0,1);
| 51>   MO("Te_ano-r3_pbe_phi_b_scf_1_re.cube",1,1);
| 52>   MO("Te_ano-r3_pbe_phi_b_scf_2_re.cube",2,1);
| 53>   MO("Te_ano-r3_pbe_phi_b_scf_3_re.cube",3,1);
| 54>   MO("Te_ano-r3_pbe_phi_b_scf_4_re.cube",4,1);
| 55>   MO("Te_ano-r3_pbe_phi_b_scf_5_re.cube",5,1);
| 56>   MO("Te_ano-r3_pbe_phi_b_scf_6_re.cube",6,1);
| 57>   MO("Te_ano-r3_pbe_phi_b_scf_7_re.cube",7,1);
| 58>   MO("Te_ano-r3_pbe_phi_b_scf_8_re.cube",8,1);
| 59>   MO("Te_ano-r3_pbe_phi_b_scf_9_re.cube",9,1);
| 60>   MO("Te_ano-r3_pbe_phi_b_scf_10_re.cube",10,1);
| 61>   MO("Te_ano-r3_pbe_phi_b_scf_11_re.cube",11,1);
| 62>   MO("Te_ano-r3_pbe_phi_b_scf_12_re.cube",12,1);
| 63>   MO("Te_ano-r3_pbe_phi_b_scf_13_re.cube",13,1);
| 64>   MO("Te_ano-r3_pbe_phi_b_scf_14_re.cube",14,1);
| 65>   MO("Te_ano-r3_pbe_phi_b_scf_15_re.cube",15,1);
| 66>   MO("Te_ano-r3_pbe_phi_b_scf_16_re.cube",16,1);
| 67>   MO("Te_ano-r3_pbe_phi_b_scf_17_re.cube",17,1);
| 68>   MO("Te_ano-r3_pbe_phi_b_scf_18_re.cube",18,1);
| 69>   MO("Te_ano-r3_pbe_phi_b_scf_19_re.cube",19,1);
| 70>   MO("Te_ano-r3_pbe_phi_b_scf_20_re.cube",20,1);
| 71>   MO("Te_ano-r3_pbe_phi_b_scf_21_re.cube",21,1);
| 72>   MO("Te_ano-r3_pbe_phi_b_scf_22_re.cube",22,1);
| 73>   MO("Te_ano-r3_pbe_phi_b_scf_23_re.cube",23,1);
| 74>   MO("Te_ano-r3_pbe_phi_b_scf_24_re.cube",24,1);
| 75> endd                         ****END OF INPUT****

CARTESIAN COORDINATES (ANGSTROEM)
---------------------------------
  Te     0.000000    0.000000    0.000000

 Total Charge           Charge          ....    0
 Multiplicity           Mult            ....    3
 Number of Electrons    NEL             ....   52
 Basis Dimension        Dim             ....  120

ORBITAL ENERGIES
----------------
                 SPIN UP ORBITALS
  NO   OCC          E(Eh)            E(eV)
   0   1.0000   -1040.760839    -28320.5422
   1   1.0000    -155.389493     -4228.3631
   2   1.0000    -155.389493     -4228.3631
   3   1.0000    -155.386114     -4228.2711
   4   1.0000    -153.279014     -4170.9340
   5   1.0000     -29.745760      -809.4233
   6   1.0000     -28.776129      -783.0383
   7   1.0000     -28.776129      -783.0383
   8   1.0000     -28.769412      -782.8555
   9   1.0000     -21.053973      -572.9077
  10   1.0000     -21.053973      -572.9077
  11   1.0000     -21.049444      -572.7845
  12   1.0000     -21.049444      -572.7845
  13   1.0000     -21.047926      -572.7432
  14   1.0000      -4.848933      -131.9462
  15   1.0000      -4.153686      -113.0275
  16   1.0000      -4.153686      -113.0275
  17   1.0000      -4.138545      -112.6155
  18   1.0000      -1.697359       -46.1875
  19   1.0000      -1.697359       -46.1875
  20   1.0000      -1.684324       -45.8328
  21   1.0000      -1.684324       -45.8328
  22   1.0000      -1.680020       -45.7157
  23   1.0000      -0.453533       -12.3413
  24   1.0000      -0.263335        -7.1657
  25   1.0000      -0.263335        -7.1657
  26   1.0000      -0.227293        -6.1849
  27   0.0000       0.018423         0.5013
  28   0.0000       0.138438         3.7671
  29   0.0000       0.138438         3.7671
  30   0.0000       0.149087         4.0569
  31   0.0000       0.149087         4.0569

                 SPIN DOWN ORBITALS
  NO   OCC          E(Eh)            E(eV)
   0   1.0000   -1040.758641    -28320.4824
   1   1.0000    -155.387177     -4228.3001
   2   1.0000    -155.387177     -4228.3001
   3   1.0000    -155.385191     -4228.2460
   4   1.0000    -153.277973     -4170.9057
   5   1.0000     -29.743665      -809.3663
   6   1.0000     -28.773518      -782.9672
   7   1.0000     -28.773518      -782.9672
   8   1.0000     -28.768418      -782.8284
   9   1.0000     -21.051367      -572.8368
  10   1.0000     -21.051367      -572.8368
  11   1.0000     -21.047912      -572.7428
  12   1.0000     -21.047912      -572.7428
  13   1.0000     -21.046752      -572.7113
  14   1.0000      -4.845015      -131.8396
  15   1.0000      -4.147991      -112.8726
  16   1.0000      -4.147991      -112.8726
  17   1.0000      -4.136758      -112.5669
  18   1.0000      -1.687095       -45.9082
  19   1.0000      -1.687095       -45.9082
  20   1.0000      -1.678850       -45.6838
  21   1.0000      -1.678850       -45.6838
  22   1.0000      -1.675738       -45.5991
  23   1.0000      -0.401417       -10.9231
  24   1.0000      -0.208227        -5.6662
  25   0.0000      -0.199283        -5.4228
  26   0.0000      -0.199283        -5.4228
  27   0.0000       0.035792         0.9739
  28   0.0000       0.164328         4.4716
  29   0.0000       0.169746         4.6190

MULLIKEN ATOMIC CHARGES AND SPIN POPULATIONS
--------------------------------------------
   0 Te:   -0.000000    2.000000
Sum of atomic charges         :   -0.0000000

LOEWDIN ATOMIC CHARGES AND SPIN POPULATIONS
-------------------------------------------
   0 Te:   -0.000000    2.000000

FINAL SINGLE POINT ENERGY     -6431.010142913680

DIPOLE MOMENT
-------------
                                X             Y             Z
Electronic contribution:      0.00000       0.00000       0.00000
Nuclear contribution   :      0.00000       0.00000       0.00000
                        -----------------------------------------
Total Dipole Moment    :      0.00000       0.00000       0.00000
                        -----------------------------------------
Magnitude (a.u.)       :      0.00000
Magnitude (Debye)      :      0.00000

Rotational constants in cm-1:     0.000000     0.000000     0.000000
Rotational constants in MHz :     0.000000     0.000000     0.000000

                             ****ORCA TERMINATED NORMALLY****
TOTAL RUN TIME: 0 days 1 hours 0 minutes 44 seconds 417 msec
