                         Program Version 5.0.1 -  RELEASE  -
|  1> !uks pbe nori verytightscf soscf
|  2>
|  3> %pal
|  4>   nprocs 32
|  5> end
|  6> %coords
|  7>   charge 0
|  8>   mult 1
|  9>   units bohrs
| 10>   coords
| 11>     Xe 0.0 0.0 0.0
| 12>   end
| 13> end
| 14> %basis
| 15>   gtoname "/cluster/home/ambr/projects/zora/row5/calcs_gto/Xe_ano-r3.basis"
| 16>   delECP Xe
| 17> end
| 18> %plots
| 19>   format gaussian_cube
| 20>   dim1 120
| 21>   dim2 120
| 22>   dim3 120
| 23>   MO("Xe_ano-r3_pbe_phi_a_scf_0_re.cube",0,0);
| 24>   MO("Xe_ano-r3_pbe_phi_a_scf_1_re.cube",1,0);
| 25>   MO("Xe_ano-r3_pbe_phi_a_scf_2_re.cube",2,0);
| 26>   MO("Xe_ano-r3_pbe_phi_a_scf_3_re.cube",3,0);
| 27>   MO("Xe_ano-r3_pbe_phi_a_scf_4_re.cube",4,0);
| 28>   MO("Xe_ano-r3_pbe_phi_a_scf_5_re.cube",5,0);
| 29>   MO("Xe_ano-r3_pbe_phi_a_scf_6_re.cube",6,0);
| 30>   MO("Xe_ano-r3_pbe_phi_a_scf_7_re.cube",7,0);
| 31>   MO("Xe_ano-r3_pbe_phi_a_scf_8_re.cube",8,0);
| 32>   MO("Xe_ano-r3_pbe_phi_a_scf_9_re.cube",9,0);
| 33>   MO("Xe_ano-r3_pbe_phi_a_scf_10_re.cube",10,0);
| 34>   MO("Xe_ano-r3_pbe_phi_a_scf_11_re.cube",11,0);
| 35>   MO("Xe_ano-r3_pbe_phi_a_scf_12_re.cube",12,0);
| 36>   MO("Xe_ano-r3_pbe_phi_a_scf_13_re.cube",13,0);
| 37>   MO("Xe_ano-r3_pbe_phi_a_scf_14_re.cube",14,0);
| 38>   MO("Xe_ano-r3_pbe_phi_a_scf_15_re.cube",15,0);
| 39>   MO("Xe_ano-r3_pbe_phi_a_scf_16_re.cube",16,0);
| 40>   MO("Xe_ano-r3_pbe_phi_a_scf_17_re.cube",17,0);
| 41>   MO("Xe_ano-r3_pbe_phi_a_scf_18_re.cube",18,0);
| 42>   MO("Xe_ano-r3_pbe_phi_a_scf_19_re.cube",19,0);
| 43>   MO("Xe_ano-r3_pbe_phi_a_scf_20_re.cube",20,0);
| 44>   MO("Xe_ano-r3_pbe_phi_a_scf_21_re.cube",21,0);
| 45>   MO("Xe_ano-r3_pbe_phi_a_scf_22_re.cube",22,0);
| 46>   MO("Xe_ano-r3_pbe_phi_a_scf_23_re.cube",23,0);
| 47>   MO("Xe_ano-r3_pbe_phi_a_scf_24_re.cube",24,0);
| 48>   MO("Xe_ano-r3_pbe_phi_a_scf_25_re.cube",25,0);
| 49>   MO("Xe_ano-r3_pbe_phi_a_scf_26_re.cube",26,0);
| 50>   MO("Xe_ano-r3_pbe_phi_b_scf_0_re.cube",0,1);
| 51>   MO("Xe_ano-r3_pbe_phi_b_scf_1_re.cube",1,1);
| 52>   MO("Xe_ano-r3_pbe_phi_b_scf_2_re.cube",2,1);
| 53>   MO("Xe_ano-r3_pbe_phi_b_scf_3_re.cube",3,1);
| 54>   MO("Xe_ano-r3_pbe_phi_b_scf_4_re.cube",4,1);
| 55>   MO("Xe_ano-r3_pbe_phi_b_scf_5_re.cube",5,1);
| 56>   MO("Xe_ano-r3_pbe_phi_b_scf_6_re.cube",6,1);
| 57>   MO("Xe_ano-r3_pbe_phi_b_scf_7_re.cube",7,1);
| 58>   MO("Xe_ano-r3_pbe_phi_b_scf_8_re.cube",8,1);
| 59>   MO("Xe_ano-r3_pbe_phi_b_scf_9_re.cube",9,1);
| 60>   MO("Xe_ano-r3_pbe_phi_b_scf_10_re.cube",10,1);
| 61>   MO("Xe_ano-r3_pbe_phi_b_scf_11_re.cube",11,1);
| 62>   MO("Xe_ano-r3_pbe_phi_b_scf_12_re.cube",12,1);
| 63>   MO("Xe_ano-r3_pbe_phi_b_scf_13_re.cube",13,1);
| 64>   MO("Xe_ano-r3_pbe_phi_b_scf_14_re.cube",14,1);
| 65>   MO("Xe_ano-r3_pbe_phi_b_scf_15_re.cube",15,1);
| 66>   MO("Xe_ano-r3_pbe_phi_b_scf_16_re.cube",16,1);
| 67>   MO("Xe_ano-r3_pbe_phi_b_scf_17_re.cube",17,1);
| 68>   MO("Xe_ano-r3_pbe_phi_b_scf_18_re.cube",18,1);
| 69>   MO("Xe_ano-r3_pbe_phi_b_scf_19_re.cube",19,1);
| 70>   MO("Xe_ano-r3_pbe_phi_b_scf_20_re.cube",20,1);
| 71>   MO("Xe_ano-r3_pbe_phi_b_scf_21_re.cube",21,1);
| 72>   MO("Xe_ano-r3_pbe_phi_b_scf_22_re.cube",22,1);
| 73>   MO("Xe_ano-r3_pbe_phi_b_scf_23_re.cube",23,1);
| 74>   MO("Xe_ano-r3_pbe_phi_b_scf_24_re.cube",24,1);
| 75>   MO("Xe_ano-r3_pbe_phi_b_scf_25_re.cube",25,1);
| 76>   MO("Xe_ano-r3_pbe_phi_b_scf_26_re.cube",26,1);
| 77> endd                         ****END OF INPUT****

CARTESIAN COORDINATES (ANGSTROEM)
---------------------------------
  Xe     0.000000    0.000000    0.000000

 Total Charge           Charge          ....    0
 Multiplicity           Mult            ....    1
 Number of Electrons    NEL             ....   54
 Basis Dimension        Dim             ....  124

ORBITAL ENERGIES
----------------
                 SPIN UP ORBITALS
  NO   OCC          E(Eh)            E(eV)
   0   1.0000   -1115.245647    -30347.3769
   1   1.0000    -171.069486     -4655.0374
   2   1.0000    -171.069486     -4655.0374
   3   1.0000    -171.069486     -4655.0374
   4   1.0000    -165.864152     -4513.3930
   5   1.0000     -32.963583      -896.9847
   6   1.0000     -32.804485      -892.6554
   7   1.0000     -32.804485      -892.6554
   8   1.0000     -32.804485      -892.6554
   9   1.0000     -24.639807      -670.4832
  10   1.0000     -24.639807      -670.4832
  11   1.0000     -24.639807      -670.4832
  12   1.0000     -24.639807      -670.4832
  13   1.0000     -24.639807      -670.4832
  14   1.0000      -5.677388      -154.4896
  15   1.0000      -5.132874      -139.6726
  16   1.0000      -5.132874      -139.6726
  17   1.0000      -5.132874      -139.6726
  18   1.0000      -2.400773       -65.3283
  19   1.0000      -2.400773       -65.3283
  20   1.0000      -2.400773       -65.3283
  21   1.0000      -2.400773       -65.3283
  22   1.0000      -2.400773       -65.3283
  23   1.0000      -0.534152       -14.5350
  24   1.0000      -0.319647        -8.6980
  25   1.0000      -0.319647        -8.6980
  26   1.0000      -0.319647        -8.6980
  27   0.0000       0.044664         1.2154
  28   0.0000       0.190608         5.1867
  29   0.0000       0.190608         5.1867
  30   0.0000       0.190608         5.1867
  31   0.0000       0.200682         5.4608

                 SPIN DOWN ORBITALS
  NO   OCC          E(Eh)            E(eV)
   0   1.0000   -1115.245647    -30347.3769
   1   1.0000    -171.069486     -4655.0374
   2   1.0000    -171.069486     -4655.0374
   3   1.0000    -171.069486     -4655.0374
   4   1.0000    -165.864152     -4513.3930
   5   1.0000     -32.963583      -896.9847
   6   1.0000     -32.804485      -892.6554
   7   1.0000     -32.804485      -892.6554
   8   1.0000     -32.804485      -892.6554
   9   1.0000     -24.639807      -670.4832
  10   1.0000     -24.639807      -670.4832
  11   1.0000     -24.639807      -670.4832
  12   1.0000     -24.639807      -670.4832
  13   1.0000     -24.639807      -670.4832
  14   1.0000      -5.677388      -154.4896
  15   1.0000      -5.132874      -139.6726
  16   1.0000      -5.132874      -139.6726
  17   1.0000      -5.132874      -139.6726
  18   1.0000      -2.400773       -65.3283
  19   1.0000      -2.400773       -65.3283
  20   1.0000      -2.400773       -65.3283
  21   1.0000      -2.400773       -65.3283
  22   1.0000      -2.400773       -65.3283
  23   1.0000      -0.534152       -14.5350
  24   1.0000      -0.319647        -8.6980
  25   1.0000      -0.319647        -8.6980
  26   1.0000      -0.319647        -8.6980
  27   0.0000       0.044664         1.2154
  28   0.0000       0.190608         5.1867
  29   0.0000       0.190608         5.1867
  30   0.0000       0.190608         5.1867
  31   0.0000       0.200682         5.4608

MULLIKEN ATOMIC CHARGES AND SPIN POPULATIONS
--------------------------------------------
   0 Xe:    0.000000   -0.000000
Sum of atomic charges         :    0.0000000

LOEWDIN ATOMIC CHARGES AND SPIN POPULATIONS
-------------------------------------------
   0 Xe:   -0.000000   -0.000000

FINAL SINGLE POINT ENERGY     -7003.229070779867

DIPOLE MOMENT
-------------
                                X             Y             Z
Electronic contribution:     -0.00000      -0.00000      -0.00000
Nuclear contribution   :      0.00000       0.00000       0.00000
                        -----------------------------------------
Total Dipole Moment    :     -0.00000      -0.00000      -0.00000
                        -----------------------------------------
Magnitude (a.u.)       :      0.00000
Magnitude (Debye)      :      0.00000

Rotational constants in cm-1:     0.000000     0.000000     0.000000
Rotational constants in MHz :     0.000000     0.000000     0.000000

                             ****ORCA TERMINATED NORMALLY****
TOTAL RUN TIME: 0 days 0 hours 27 minutes 27 seconds 894 msec
