                         Program Version 5.0.1 -  RELEASE  -
|  1> !uks pbe nori verytightscf soscf
|  2>
|  3> %pal
|  4>   nprocs 32
|  5> end
|  6> %coords
|  7>   charge 0
|  8>   mult 2
|  9>   units bohrs
| 10>   coords
| 11>     Y 0.0 0.0 0.0
| 12>   end
| 13> end
| 14> %basis
| 15>   gtoname "/cluster/home/ambr/projects/zora/row5/calcs_gto/Y_ano-r3.basis"
| 16>   delECP Y
| 17> end
| 18> %plots
| 19>   format gaussian_cube
| 20>   dim1 120
| 21>   dim2 120
| 22>   dim3 120
| 23>   MO("Y_ano-r3_pbe_phi_a_scf_0_re.cube",0,0);
| 24>   MO("Y_ano-r3_pbe_phi_a_scf_1_re.cube",1,0);
| 25>   MO("Y_ano-r3_pbe_phi_a_scf_2_re.cube",2,0);
| 26>   MO("Y_ano-r3_pbe_phi_a_scf_3_re.cube",3,0);
| 27>   MO("Y_ano-r3_pbe_phi_a_scf_4_re.cube",4,0);
| 28>   MO("Y_ano-r3_pbe_phi_a_scf_5_re.cube",5,0);
| 29>   MO("Y_ano-r3_pbe_phi_a_scf_6_re.cube",6,0);
| 30>   MO("Y_ano-r3_pbe_phi_a_scf_7_re.cube",7,0);
| 31>   MO("Y_ano-r3_pbe_phi_a_scf_8_re.cube",8,0);
| 32>   MO("Y_ano-r3_pbe_phi_a_scf_9_re.cube",9,0);
| 33>   MO("Y_ano-r3_pbe_phi_a_scf_10_re.cube",10,0);
| 34>   MO("Y_ano-r3_pbe_phi_a_scf_11_re.cube",11,0);
| 35>   MO("Y_ano-r3_pbe_phi_a_scf_12_re.cube",12,0);
| 36>   MO("Y_ano-r3_pbe_phi_a_scf_13_re.cube",13,0);
| 37>   MO("Y_ano-r3_pbe_phi_a_scf_14_re.cube",14,0);
| 38>   MO("Y_ano-r3_pbe_phi_a_scf_15_re.cube",15,0);
| 39>   MO("Y_ano-r3_pbe_phi_a_scf_16_re.cube",16,0);
| 40>   MO("Y_ano-r3_pbe_phi_a_scf_17_re.cube",17,0);
| 41>   MO("Y_ano-r3_pbe_phi_a_scf_18_re.cube",18,0);
| 42>   MO("Y_ano-r3_pbe_phi_a_scf_19_re.cube",19,0);
| 43>   MO("Y_ano-r3_pbe_phi_b_scf_0_re.cube",0,1);
| 44>   MO("Y_ano-r3_pbe_phi_b_scf_1_re.cube",1,1);
| 45>   MO("Y_ano-r3_pbe_phi_b_scf_2_re.cube",2,1);
| 46>   MO("Y_ano-r3_pbe_phi_b_scf_3_re.cube",3,1);
| 47>   MO("Y_ano-r3_pbe_phi_b_scf_4_re.cube",4,1);
| 48>   MO("Y_ano-r3_pbe_phi_b_scf_5_re.cube",5,1);
| 49>   MO("Y_ano-r3_pbe_phi_b_scf_6_re.cube",6,1);
| 50>   MO("Y_ano-r3_pbe_phi_b_scf_7_re.cube",7,1);
| 51>   MO("Y_ano-r3_pbe_phi_b_scf_8_re.cube",8,1);
| 52>   MO("Y_ano-r3_pbe_phi_b_scf_9_re.cube",9,1);
| 53>   MO("Y_ano-r3_pbe_phi_b_scf_10_re.cube",10,1);
| 54>   MO("Y_ano-r3_pbe_phi_b_scf_11_re.cube",11,1);
| 55>   MO("Y_ano-r3_pbe_phi_b_scf_12_re.cube",12,1);
| 56>   MO("Y_ano-r3_pbe_phi_b_scf_13_re.cube",13,1);
| 57>   MO("Y_ano-r3_pbe_phi_b_scf_14_re.cube",14,1);
| 58>   MO("Y_ano-r3_pbe_phi_b_scf_15_re.cube",15,1);
| 59>   MO("Y_ano-r3_pbe_phi_b_scf_16_re.cube",16,1);
| 60>   MO("Y_ano-r3_pbe_phi_b_scf_17_re.cube",17,1);
| 61>   MO("Y_ano-r3_pbe_phi_b_scf_18_re.cube",18,1);
| 62> end
| 63>
| 64>                          ****END OF INPUT****

CARTESIAN COORDINATES (ANGSTROEM)
---------------------------------
   Y     0.000000    0.000000    0.000000

 Total Charge           Charge          ....    0
 Multiplicity           Mult            ....    2
 Number of Electrons    NEL             ....   39
 Basis Dimension        Dim             ....  106

ORBITAL ENERGIES
----------------
                 SPIN UP ORBITALS
  NO   OCC          E(Eh)            E(eV)
   0   1.0000    -591.179024    -16086.7991
   1   1.0000     -79.552216     -2164.7259
   2   1.0000     -74.386205     -2024.1516
   3   1.0000     -74.384521     -2024.1057
   4   1.0000     -74.384521     -2024.1057
   5   1.0000     -12.602233      -342.9242
   6   1.0000     -10.385213      -282.5960
   7   1.0000     -10.378187      -282.4048
   8   1.0000     -10.378187      -282.4048
   9   1.0000      -5.682764      -154.6359
  10   1.0000      -5.681764      -154.6087
  11   1.0000      -5.681764      -154.6087
  12   1.0000      -5.676819      -154.4741
  13   1.0000      -5.676349      -154.4613
  14   1.0000      -1.626485       -44.2589
  15   1.0000      -1.014345       -27.6017
  16   1.0000      -1.012966       -27.5642
  17   1.0000      -1.012966       -27.5642
  18   1.0000      -0.142019        -3.8645
  19   1.0000      -0.121005        -3.2927
  20   0.0000      -0.096959        -2.6384
  21   0.0000      -0.096953        -2.6382
  22   0.0000      -0.094484        -2.5710
  23   0.0000      -0.090965        -2.4753
  24   0.0000      -0.022594        -0.6148

                 SPIN DOWN ORBITALS
  NO   OCC          E(Eh)            E(eV)
   0   1.0000    -591.179070    -16086.8003
   1   1.0000     -79.550530     -2164.6800
   2   1.0000     -74.386473     -2024.1588
   3   1.0000     -74.382580     -2024.0529
   4   1.0000     -74.382580     -2024.0529
   5   1.0000     -12.601267      -342.8979
   6   1.0000     -10.383857      -282.5591
   7   1.0000     -10.377253      -282.3794
   8   1.0000     -10.377252      -282.3794
   9   1.0000      -5.681029      -154.5887
  10   1.0000      -5.680214      -154.5665
  11   1.0000      -5.680214      -154.5665
  12   1.0000      -5.677166      -154.4835
  13   1.0000      -5.672785      -154.3643
  14   1.0000      -1.613985       -43.9188
  15   1.0000      -1.014332       -27.6014
  16   1.0000      -0.991661       -26.9845
  17   1.0000      -0.991656       -26.9843
  18   1.0000      -0.135524        -3.6878
  19   0.0000      -0.091578        -2.4920
  20   0.0000      -0.091572        -2.4918
  21   0.0000      -0.091068        -2.4781
  22   0.0000      -0.077324        -2.1041
  23   0.0000      -0.060765        -1.6535

MULLIKEN ATOMIC CHARGES AND SPIN POPULATIONS
--------------------------------------------
   0  Y:   -0.000000    1.000000
Sum of atomic charges         :   -0.0000000

LOEWDIN ATOMIC CHARGES AND SPIN POPULATIONS
-------------------------------------------
   0  Y:   -0.000000    1.000000

FINAL SINGLE POINT ENERGY     -3300.838144318769

DIPOLE MOMENT
-------------
                                X             Y             Z
Electronic contribution:      0.00000      -0.00000      -0.00000
Nuclear contribution   :      0.00000       0.00000       0.00000
                        -----------------------------------------
Total Dipole Moment    :      0.00000      -0.00000      -0.00000
                        -----------------------------------------
Magnitude (a.u.)       :      0.00000
Magnitude (Debye)      :      0.00001

Rotational constants in cm-1:     0.000000     0.000000     0.000000
Rotational constants in MHz :     0.000000     0.000000     0.000000

                             ****ORCA TERMINATED NORMALLY****
TOTAL RUN TIME: 0 days 0 hours 53 minutes 53 seconds 7 msec
