                         Program Version 5.0.1 -  RELEASE  -
|  1> !uks pbe nori verytightscf soscf notrah
|  2>
|  3> %pal
|  4>   nprocs 32
|  5> end
|  6> %coords
|  7>   charge 0
|  8>   mult 3
|  9>   units bohrs
| 10>   coords
| 11>     Zr 0.0 0.0 0.0
| 12>   end
| 13> end
| 14> %basis
| 15>   gtoname "/cluster/home/ambr/projects/zora/row5/calcs_gto/Zr_ano-r3.basis"
| 16>   delECP Zr
| 17> end
| 18> %plots
| 19>   format gaussian_cube
| 20>   dim1 120
| 21>   dim2 120
| 22>   dim3 120
| 23>   MO("Zr_ano-r3_pbe_phi_a_scf_0_re.cube",0,0);
| 24>   MO("Zr_ano-r3_pbe_phi_a_scf_1_re.cube",1,0);
| 25>   MO("Zr_ano-r3_pbe_phi_a_scf_2_re.cube",2,0);
| 26>   MO("Zr_ano-r3_pbe_phi_a_scf_3_re.cube",3,0);
| 27>   MO("Zr_ano-r3_pbe_phi_a_scf_4_re.cube",4,0);
| 28>   MO("Zr_ano-r3_pbe_phi_a_scf_5_re.cube",5,0);
| 29>   MO("Zr_ano-r3_pbe_phi_a_scf_6_re.cube",6,0);
| 30>   MO("Zr_ano-r3_pbe_phi_a_scf_7_re.cube",7,0);
| 31>   MO("Zr_ano-r3_pbe_phi_a_scf_8_re.cube",8,0);
| 32>   MO("Zr_ano-r3_pbe_phi_a_scf_9_re.cube",9,0);
| 33>   MO("Zr_ano-r3_pbe_phi_a_scf_10_re.cube",10,0);
| 34>   MO("Zr_ano-r3_pbe_phi_a_scf_11_re.cube",11,0);
| 35>   MO("Zr_ano-r3_pbe_phi_a_scf_12_re.cube",12,0);
| 36>   MO("Zr_ano-r3_pbe_phi_a_scf_13_re.cube",13,0);
| 37>   MO("Zr_ano-r3_pbe_phi_a_scf_14_re.cube",14,0);
| 38>   MO("Zr_ano-r3_pbe_phi_a_scf_15_re.cube",15,0);
| 39>   MO("Zr_ano-r3_pbe_phi_a_scf_16_re.cube",16,0);
| 40>   MO("Zr_ano-r3_pbe_phi_a_scf_17_re.cube",17,0);
| 41>   MO("Zr_ano-r3_pbe_phi_a_scf_18_re.cube",18,0);
| 42>   MO("Zr_ano-r3_pbe_phi_a_scf_19_re.cube",19,0);
| 43>   MO("Zr_ano-r3_pbe_phi_a_scf_20_re.cube",20,0);
| 44>   MO("Zr_ano-r3_pbe_phi_b_scf_0_re.cube",0,1);
| 45>   MO("Zr_ano-r3_pbe_phi_b_scf_1_re.cube",1,1);
| 46>   MO("Zr_ano-r3_pbe_phi_b_scf_2_re.cube",2,1);
| 47>   MO("Zr_ano-r3_pbe_phi_b_scf_3_re.cube",3,1);
| 48>   MO("Zr_ano-r3_pbe_phi_b_scf_4_re.cube",4,1);
| 49>   MO("Zr_ano-r3_pbe_phi_b_scf_5_re.cube",5,1);
| 50>   MO("Zr_ano-r3_pbe_phi_b_scf_6_re.cube",6,1);
| 51>   MO("Zr_ano-r3_pbe_phi_b_scf_7_re.cube",7,1);
| 52>   MO("Zr_ano-r3_pbe_phi_b_scf_8_re.cube",8,1);
| 53>   MO("Zr_ano-r3_pbe_phi_b_scf_9_re.cube",9,1);
| 54>   MO("Zr_ano-r3_pbe_phi_b_scf_10_re.cube",10,1);
| 55>   MO("Zr_ano-r3_pbe_phi_b_scf_11_re.cube",11,1);
| 56>   MO("Zr_ano-r3_pbe_phi_b_scf_12_re.cube",12,1);
| 57>   MO("Zr_ano-r3_pbe_phi_b_scf_13_re.cube",13,1);
| 58>   MO("Zr_ano-r3_pbe_phi_b_scf_14_re.cube",14,1);
| 59>   MO("Zr_ano-r3_pbe_phi_b_scf_15_re.cube",15,1);
| 60>   MO("Zr_ano-r3_pbe_phi_b_scf_16_re.cube",16,1);
| 61>   MO("Zr_ano-r3_pbe_phi_b_scf_17_re.cube",17,1);
| 62>   MO("Zr_ano-r3_pbe_phi_b_scf_18_re.cube",18,1);
| 63> end
| 64>
| 65>                          ****END OF INPUT****

CARTESIAN COORDINATES (ANGSTROEM)
---------------------------------
  Zr     0.000000    0.000000    0.000000

 Total Charge           Charge          ....    0
 Multiplicity           Mult            ....    3
 Number of Electrons    NEL             ....   40
 Basis Dimension        Dim             ....  101

ORBITAL ENERGIES
----------------
                 SPIN UP ORBITALS
  NO   OCC          E(Eh)            E(eV)
   0   1.0000    -622.528202    -16939.8536
   1   1.0000     -84.553160     -2300.8085
   2   1.0000     -79.485046     -2162.8981
   3   1.0000     -79.484182     -2162.8746
   4   1.0000     -79.484182     -2162.8745
   5   1.0000     -13.701591      -372.8392
   6   1.0000     -11.449733      -311.5631
   7   1.0000     -11.442970      -311.3790
   8   1.0000     -11.442969      -311.3790
   9   1.0000      -6.512121      -177.2038
  10   1.0000      -6.512120      -177.2038
  11   1.0000      -6.511668      -177.1915
  12   1.0000      -6.506589      -177.0533
  13   1.0000      -6.506588      -177.0533
  14   1.0000      -1.798211       -48.9318
  15   1.0000      -1.146812       -31.2063
  16   1.0000      -1.146809       -31.2063
  17   1.0000      -1.143495       -31.1161
  18   1.0000      -0.146981        -3.9996
  19   1.0000      -0.140506        -3.8234
  20   1.0000      -0.140499        -3.8232
  21   0.0000      -0.114810        -3.1241
  22   0.0000      -0.114774        -3.1232
  23   0.0000      -0.104280        -2.8376
  24   0.0000      -0.010431        -0.2839
  25   0.0000      -0.010420        -0.2836

                 SPIN DOWN ORBITALS
  NO   OCC          E(Eh)            E(eV)
   0   1.0000    -622.528237    -16939.8545
   1   1.0000     -84.549025     -2300.6959
   2   1.0000     -79.484388     -2162.8802
   3   1.0000     -79.480020     -2162.7613
   4   1.0000     -79.480019     -2162.7613
   5   1.0000     -13.699129      -372.7722
   6   1.0000     -11.446712      -311.4809
   7   1.0000     -11.440481      -311.3113
   8   1.0000     -11.440479      -311.3113
   9   1.0000      -6.509034      -177.1198
  10   1.0000      -6.508345      -177.1011
  11   1.0000      -6.508343      -177.1010
  12   1.0000      -6.501684      -176.9198
  13   1.0000      -6.501682      -176.9198
  14   1.0000      -1.768763       -48.1305
  15   1.0000      -1.130019       -30.7494
  16   1.0000      -1.104936       -30.0668
  17   1.0000      -1.104931       -30.0667
  18   1.0000      -0.135110        -3.6765
  19   0.0000      -0.095530        -2.5995
  20   0.0000      -0.095523        -2.5993
  21   0.0000      -0.093842        -2.5536
  22   0.0000      -0.068313        -1.8589
  23   0.0000      -0.068313        -1.8589

MULLIKEN ATOMIC CHARGES AND SPIN POPULATIONS
--------------------------------------------
   0 Zr:   -0.000000    2.000000
Sum of atomic charges         :   -0.0000000

LOEWDIN ATOMIC CHARGES AND SPIN POPULATIONS
-------------------------------------------
   0 Zr:    0.000000    2.000000

FINAL SINGLE POINT ENERGY     -3502.944806676847

DIPOLE MOMENT
-------------
                                X             Y             Z
Electronic contribution:     -0.00000      -0.00000      -0.00000
Nuclear contribution   :      0.00000       0.00000       0.00000
                        -----------------------------------------
Total Dipole Moment    :     -0.00000      -0.00000      -0.00000
                        -----------------------------------------
Magnitude (a.u.)       :      0.00000
Magnitude (Debye)      :      0.00000

Rotational constants in cm-1:     0.000000     0.000000     0.000000
Rotational constants in MHz :     0.000000     0.000000     0.000000

                             ****ORCA TERMINATED NORMALLY****
TOTAL RUN TIME: 0 days 0 hours 44 minutes 3 seconds 773 msec
