                         Program Version 4.2.1 -  RELEASE  -
|  1>
|  2> ! pbe def2-qzvppd nori grid5 finalgrid6 tightscf
|  3> %pal nprocs 18 end
|  4>
|  5> %rel
|  6>   method zora
|  7>   modelpot 1, 0, 0, 0
|  8>   c 137.035999084
|  9> end
| 10>
| 11> *xyzfile 0 1 ../xyzfiles/H2O.xyz
| 12>
| 13>                          ****END OF INPUT****

CARTESIAN COORDINATES (ANGSTROEM)
---------------------------------
  O      0.000000    0.000000    0.117300
  H      0.000000    0.757200   -0.469200
  H      0.000000   -0.757200   -0.469200

 Total Charge           Charge          ....    0
 Multiplicity           Mult            ....    1
 Number of Electrons    NEL             ....   10
 Basis Dimension        Dim             ....  132

ORBITAL ENERGIES
----------------

  NO   OCC          E(Eh)            E(eV)
   0   2.0000     -18.793297      -511.3916
   1   2.0000      -0.933767       -25.4091
   2   2.0000      -0.485063       -13.1992
   3   2.0000      -0.343308        -9.3419
   4   2.0000      -0.266276        -7.2457
   5   0.0000      -0.025403        -0.6913
   6   0.0000       0.030633         0.8336
   7   0.0000       0.056968         1.5502
   8   0.0000       0.057871         1.5748
   9   0.0000       0.109939         2.9916

MULLIKEN ATOMIC CHARGES
-----------------------
   0 O :   -0.361184
   1 H :    0.180592
   2 H :    0.180592
Sum of atomic charges:   -0.0000000

LOEWDIN ATOMIC CHARGES
----------------------
   0 O :    0.851148
   1 H :   -0.425574
   2 H :   -0.425574

  Mayer bond orders larger than 0.100000
B(  0-O ,  1-H ) :   1.0421 B(  0-O ,  2-H ) :   1.0421

FINAL SINGLE POINT ENERGY       -76.500219980309

DIPOLE MOMENT
-------------
                                X             Y             Z
Electronic contribution:      0.00000      -0.00000       0.27191
Nuclear contribution   :      0.00000       0.00000      -0.97636
                        -----------------------------------------
Total Dipole Moment    :      0.00000      -0.00000      -0.70445
                        -----------------------------------------
Magnitude (a.u.)       :      0.70445
Magnitude (Debye)      :      1.79057

Rotational constants in cm-1:    27.372330    14.584286     9.514730
Rotational constants in MHz : 820601.811463 437225.885101 285244.437146

                             ****ORCA TERMINATED NORMALLY****
TOTAL RUN TIME: 0 days 0 hours 0 minutes 5 seconds 203 msec
