                         Program Version 4.2.1 -  RELEASE  -
|  1>
|  2> ! pbe def2-qzvppd nori grid5 finalgrid6 tightscf
|  3> %pal nprocs 18 end
|  4>
|  5> %rel
|  6>   method zora
|  7>   modelpot 1, 0, 0, 0
|  8>   c 13.703599908400001
|  9> end
| 10>
| 11> *xyzfile 0 1 ../xyzfiles/H2O.xyz
| 12>
| 13>                          ****END OF INPUT****

CARTESIAN COORDINATES (ANGSTROEM)
---------------------------------
  O      0.000000    0.000000    0.117300
  H      0.000000    0.757200   -0.469200
  H      0.000000   -0.757200   -0.469200

 Total Charge           Charge          ....    0
 Multiplicity           Mult            ....    1
 Number of Electrons    NEL             ....   10
 Basis Dimension        Dim             ....  132

ORBITAL ENERGIES
----------------

  NO   OCC          E(Eh)            E(eV)
   0   2.0000     -23.054341      -627.3405
   1   2.0000      -1.157995       -31.5107
   2   2.0000      -0.463928       -12.6241
   3   2.0000      -0.356144        -9.6912
   4   2.0000      -0.246490        -6.7073
   5   0.0000      -0.045531        -1.2389
   6   0.0000       0.029926         0.8143
   7   0.0000       0.051029         1.3886
   8   0.0000       0.055191         1.5018
   9   0.0000       0.109217         2.9720

MULLIKEN ATOMIC CHARGES
-----------------------
   0 O :    0.295695
   1 H :   -0.147848
   2 H :   -0.147847
Sum of atomic charges:   -0.0000000

LOEWDIN ATOMIC CHARGES
----------------------
   0 O :    0.769705
   1 H :   -0.384852
   2 H :   -0.384852

  Mayer bond orders larger than 0.100000
B(  0-O ,  1-H ) :   1.0872 B(  0-O ,  2-H ) :   1.0872

FINAL SINGLE POINT ENERGY       -89.518591565423

DIPOLE MOMENT
-------------
                                X             Y             Z
Electronic contribution:      0.00000       0.00000       0.51929
Nuclear contribution   :      0.00000       0.00000      -0.97636
                        -----------------------------------------
Total Dipole Moment    :      0.00000       0.00000      -0.45707
                        -----------------------------------------
Magnitude (a.u.)       :      0.45707
Magnitude (Debye)      :      1.16178

Rotational constants in cm-1:    27.372330    14.584286     9.514730
Rotational constants in MHz : 820601.811463 437225.885101 285244.437146

                             ****ORCA TERMINATED NORMALLY****
TOTAL RUN TIME: 0 days 0 hours 0 minutes 5 seconds 926 msec
