                         Program Version 4.2.1 -  RELEASE  -
|  1>
|  2> ! pbe def2-qzvppd nori grid5 finalgrid6 tightscf
|  3> %pal nprocs 18 end
|  4>
|  5> %rel
|  6>   method zora
|  7>   modelpot 1, 0, 0, 0
|  8>   c 137035.999084
|  9> end
| 10>
| 11> *xyzfile 34 1 ../xyzfiles/Kr.xyz
| 12>
| 13>                          ****END OF INPUT****

CARTESIAN COORDINATES (ANGSTROEM)
---------------------------------
  Kr     0.000000    0.000000    0.000000

 Total Charge           Charge          ....   34
 Multiplicity           Mult            ....    1
 Number of Electrons    NEL             ....    2
 Basis Dimension        Dim             ....   98

ORBITAL ENERGIES
----------------

  NO   OCC          E(Eh)            E(eV)
   0   2.0000    -617.338241    -16798.6276
   1   0.0000    -149.463265     -4067.1022
   2   0.0000    -147.233793     -4006.4352
   3   0.0000    -147.233793     -4006.4352
   4   0.0000    -147.233793     -4006.4352
   5   0.0000     -65.549579     -1783.6947

MULLIKEN ATOMIC CHARGES
-----------------------
   0 Kr:   34.000000
Sum of atomic charges:   34.0000000

LOEWDIN ATOMIC CHARGES
----------------------
   0 Kr:   34.000000

FINAL SINGLE POINT ENERGY     -1273.201255440114

DIPOLE MOMENT
-------------
                                X             Y             Z
Electronic contribution:     -0.00000       0.00000      -0.00000
Nuclear contribution   :      0.00000       0.00000       0.00000
                        -----------------------------------------
Total Dipole Moment    :     -0.00000       0.00000      -0.00000
                        -----------------------------------------
Magnitude (a.u.)       :      0.00000
Magnitude (Debye)      :      0.00000

Rotational constants in cm-1:     0.000000     0.000000     0.000000
Rotational constants in MHz :     0.000000     0.000000     0.000000

                             ****ORCA TERMINATED NORMALLY****
TOTAL RUN TIME: 0 days 0 hours 0 minutes 4 seconds 113 msec
