                         Program Version 4.2.1 -  RELEASE  -
|  1>
|  2> ! pbe def2-qzvppd nori grid5 finalgrid6 tightscf
|  3> %pal nprocs 18 end
|  4>
|  5> %rel
|  6>   method zora
|  7>   modelpot 1, 0, 0, 0
|  8>   c 13.703599908400001
|  9> end
| 10>
| 11> *xyzfile 0 1 ../xyzfiles/LiH.xyz
| 12>
| 13>                          ****END OF INPUT****

CARTESIAN COORDINATES (ANGSTROEM)
---------------------------------
  Li     0.000000    0.000000    0.000000
  H      0.000000    0.000000    1.594900

 Total Charge           Charge          ....    0
 Multiplicity           Mult            ....    1
 Number of Electrons    NEL             ....    4
 Basis Dimension        Dim             ....   68

ORBITAL ENERGIES
----------------

  NO   OCC          E(Eh)            E(eV)
   0   2.0000      -1.909969       -51.9729
   1   2.0000      -0.162398        -4.4191
   2   0.0000      -0.059842        -1.6284
   3   0.0000      -0.015423        -0.4197
   4   0.0000      -0.015423        -0.4197
   5   0.0000       0.028926         0.7871
   6   0.0000       0.034868         0.9488

MULLIKEN ATOMIC CHARGES
-----------------------
   0 Li:    0.057534
   1 H :   -0.057534
Sum of atomic charges:   -0.0000000

LOEWDIN ATOMIC CHARGES
----------------------
   0 Li:    0.185820
   1 H :   -0.185820

  Mayer bond orders larger than 0.100000
B(  0-Li,  1-H ) :   1.0317

FINAL SINGLE POINT ENERGY        -8.227627588634

DIPOLE MOMENT
-------------
                                X             Y             Z
Electronic contribution:     -0.00000       0.00000      -3.65781
Nuclear contribution   :      0.00000       0.00000       1.48516
                        -----------------------------------------
Total Dipole Moment    :     -0.00000       0.00000      -2.17265
                        -----------------------------------------
Magnitude (a.u.)       :      2.17265
Magnitude (Debye)      :      5.52243

Rotational constants in cm-1:     0.000000     7.529392     7.529392
Rotational constants in MHz :     0.000000 225725.492015 225725.492015

                             ****ORCA TERMINATED NORMALLY****
TOTAL RUN TIME: 0 days 0 hours 0 minutes 3 seconds 883 msec
