                         Program Version 5.0.1 -  RELEASE  -
|  1> !uks pbe nori verytightscf soscf notrah defgrid3
|  2>
|  3> %pal
|  4>   nprocs 32
|  5> end
|  6> %coords
|  7>   charge 0
|  8>   mult 2
|  9>   units bohrs
| 10>   coords
| 11>     Ag 0.0 0.0 0.0
| 12>   end
| 13> end
| 14> %basis
| 15>   gtoname "Ag_ano-rcc-vqzp.basis"
| 16>   delECP Ag
| 17> end
| 18> %rel
| 19>   method zora
| 20>   modelpot 1, 0, 0, 0
| 21>   c 137.035999084
| 22> endd                         ****END OF INPUT****

CARTESIAN COORDINATES (ANGSTROEM)
---------------------------------
  Ag     0.000000    0.000000    0.000000

 Total Charge           Charge          ....    0
 Multiplicity           Mult            ....    2
 Number of Electrons    NEL             ....   47
 Basis Dimension        Dim             ....  104

ORBITAL ENERGIES
----------------
                 SPIN UP ORBITALS
  NO   OCC          E(Eh)            E(eV)
   0   1.0000    -957.411369    -26052.4878
   1   1.0000    -137.940355     -3753.5479
   2   1.0000    -124.326747     -3383.1028
   3   1.0000    -124.326747     -3383.1028
   4   1.0000    -124.326747     -3383.1028
   5   1.0000     -25.167213      -684.8347
   6   1.0000     -20.620217      -561.1046
   7   1.0000     -20.620217      -561.1046
   8   1.0000     -20.620217      -561.1046
   9   1.0000     -13.232673      -360.0793
  10   1.0000     -13.232673      -360.0793
  11   1.0000     -13.232673      -360.0793
  12   1.0000     -13.232673      -360.0793
  13   1.0000     -13.232673      -360.0793
  14   1.0000      -3.485071       -94.8336
  15   1.0000      -2.160639       -58.7940
  16   1.0000      -2.160639       -58.7940
  17   1.0000      -2.160639       -58.7940
  18   1.0000      -0.272433        -7.4133
  19   1.0000      -0.272433        -7.4133
  20   1.0000      -0.272433        -7.4133
  21   1.0000      -0.272433        -7.4133
  22   1.0000      -0.272433        -7.4133
  23   1.0000      -0.171779        -4.6743
  24   0.0000      -0.022957        -0.6247
  25   0.0000      -0.022957        -0.6247
  26   0.0000      -0.022957        -0.6247
  27   0.0000       0.019693         0.5359
  28   0.0000       0.299947         8.1620

                 SPIN DOWN ORBITALS
  NO   OCC          E(Eh)            E(eV)
   0   1.0000    -957.410695    -26052.4695
   1   1.0000    -137.940527     -3753.5526
   2   1.0000    -124.326769     -3383.1034
   3   1.0000    -124.326769     -3383.1034
   4   1.0000    -124.326769     -3383.1034
   5   1.0000     -25.166823      -684.8241
   6   1.0000     -20.619850      -561.0946
   7   1.0000     -20.619850      -561.0946
   8   1.0000     -20.619850      -561.0946
   9   1.0000     -13.232518      -360.0751
  10   1.0000     -13.232518      -360.0751
  11   1.0000     -13.232518      -360.0751
  12   1.0000     -13.232518      -360.0751
  13   1.0000     -13.232518      -360.0751
  14   1.0000      -3.485319       -94.8403
  15   1.0000      -2.160219       -58.7826
  16   1.0000      -2.160219       -58.7826
  17   1.0000      -2.160219       -58.7826
  18   1.0000      -0.264877        -7.2077
  19   1.0000      -0.264877        -7.2077
  20   1.0000      -0.264877        -7.2077
  21   1.0000      -0.264877        -7.2077
  22   1.0000      -0.264877        -7.2077
  23   0.0000      -0.142869        -3.8877
  24   0.0000       0.006480         0.1763
  25   0.0000       0.006480         0.1763
  26   0.0000       0.006480         0.1763
  27   0.0000       0.044877         1.2212

MULLIKEN ATOMIC CHARGES AND SPIN POPULATIONS
--------------------------------------------
   0 Ag:    0.000000    1.000000
Sum of atomic charges         :    0.0000000

LOEWDIN ATOMIC CHARGES AND SPIN POPULATIONS
-------------------------------------------
   0 Ag:    0.000000    1.000000

FINAL SINGLE POINT ENERGY     -5389.572343274321

DIPOLE MOMENT
-------------
                                X             Y             Z
Electronic contribution:     -0.00000       0.00000       0.00000
Nuclear contribution   :      0.00000       0.00000       0.00000
                        -----------------------------------------
Total Dipole Moment    :     -0.00000       0.00000       0.00000
                        -----------------------------------------
Magnitude (a.u.)       :      0.00000
Magnitude (Debye)      :      0.00000

Rotational constants in cm-1:     0.000000     0.000000     0.000000
Rotational constants in MHz :     0.000000     0.000000     0.000000

                             ****ORCA TERMINATED NORMALLY****
TOTAL RUN TIME: 0 days 0 hours 17 minutes 52 seconds 804 msec
