                         Program Version 5.0.1 -  RELEASE  -
|  1> !uks pbe nori verytightscf soscf notrah defgrid3
|  2>
|  3> %pal
|  4>   nprocs 32
|  5> end
|  6> %coords
|  7>   charge 0
|  8>   mult 2
|  9>   units bohrs
| 10>   coords
| 11>     Ag 0.0 0.0 0.0
| 12>   end
| 13> end
| 14> %basis
| 15>   gtoname "Ag_sapporo-qzp-2012-diffuse.basis"
| 16>   delECP Ag
| 17> end
| 18> %rel
| 19>   method zora
| 20>   modelpot 1, 0, 0, 0
| 21>   c 137.035999084
| 22> endd                         ****END OF INPUT****

CARTESIAN COORDINATES (ANGSTROEM)
---------------------------------
  Ag     0.000000    0.000000    0.000000

 Total Charge           Charge          ....    0
 Multiplicity           Mult            ....    2
 Number of Electrons    NEL             ....   47
 Basis Dimension        Dim             ....  150

ORBITAL ENERGIES
----------------
                 SPIN UP ORBITALS
  NO   OCC          E(Eh)            E(eV)
   0   1.0000    -957.630904    -26058.4617
   1   1.0000    -137.488758     -3741.2593
   2   1.0000    -124.644251     -3391.7425
   3   1.0000    -124.644251     -3391.7425
   4   1.0000    -124.644251     -3391.7425
   5   1.0000     -25.000874      -680.3084
   6   1.0000     -20.623426      -561.1920
   7   1.0000     -20.623426      -561.1920
   8   1.0000     -20.623426      -561.1920
   9   1.0000     -13.236954      -360.1958
  10   1.0000     -13.236954      -360.1958
  11   1.0000     -13.236954      -360.1958
  12   1.0000     -13.236954      -360.1958
  13   1.0000     -13.236954      -360.1958
  14   1.0000      -3.464632       -94.2774
  15   1.0000      -2.164958       -58.9115
  16   1.0000      -2.164958       -58.9115
  17   1.0000      -2.164958       -58.9115
  18   1.0000      -0.277318        -7.5462
  19   1.0000      -0.277318        -7.5462
  20   1.0000      -0.277318        -7.5462
  21   1.0000      -0.277318        -7.5462
  22   1.0000      -0.277318        -7.5462
  23   1.0000      -0.172182        -4.6853
  24   0.0000      -0.031833        -0.8662
  25   0.0000      -0.031833        -0.8662
  26   0.0000      -0.031833        -0.8662
  27   0.0000       0.003716         0.1011
  28   0.0000       0.069941         1.9032

                 SPIN DOWN ORBITALS
  NO   OCC          E(Eh)            E(eV)
   0   1.0000    -957.630419    -26058.4485
   1   1.0000    -137.489028     -3741.2667
   2   1.0000    -124.644332     -3391.7447
   3   1.0000    -124.644332     -3391.7447
   4   1.0000    -124.644332     -3391.7447
   5   1.0000     -25.000484      -680.2977
   6   1.0000     -20.623046      -561.1816
   7   1.0000     -20.623046      -561.1816
   8   1.0000     -20.623046      -561.1816
   9   1.0000     -13.236802      -360.1917
  10   1.0000     -13.236802      -360.1917
  11   1.0000     -13.236802      -360.1917
  12   1.0000     -13.236802      -360.1917
  13   1.0000     -13.236802      -360.1917
  14   1.0000      -3.464798       -94.2820
  15   1.0000      -2.164607       -58.9019
  16   1.0000      -2.164607       -58.9019
  17   1.0000      -2.164607       -58.9019
  18   1.0000      -0.269892        -7.3441
  19   1.0000      -0.269892        -7.3441
  20   1.0000      -0.269892        -7.3441
  21   1.0000      -0.269892        -7.3441
  22   1.0000      -0.269892        -7.3441
  23   0.0000      -0.143522        -3.9054
  24   0.0000      -0.003700        -0.1007
  25   0.0000      -0.003700        -0.1007
  26   0.0000      -0.003700        -0.1007
  27   0.0000       0.021265         0.5787

MULLIKEN ATOMIC CHARGES AND SPIN POPULATIONS
--------------------------------------------
   0 Ag:   -0.000000    1.000000
Sum of atomic charges         :   -0.0000000

LOEWDIN ATOMIC CHARGES AND SPIN POPULATIONS
-------------------------------------------
   0 Ag:   -0.000000    1.000000

FINAL SINGLE POINT ENERGY     -5378.924674668036

DIPOLE MOMENT
-------------
                                X             Y             Z
Electronic contribution:      0.00000       0.00000       0.00000
Nuclear contribution   :      0.00000       0.00000       0.00000
                        -----------------------------------------
Total Dipole Moment    :      0.00000       0.00000       0.00000
                        -----------------------------------------
Magnitude (a.u.)       :      0.00000
Magnitude (Debye)      :      0.00000

Rotational constants in cm-1:     0.000000     0.000000     0.000000
Rotational constants in MHz :     0.000000     0.000000     0.000000

                             ****ORCA TERMINATED NORMALLY****
TOTAL RUN TIME: 0 days 0 hours 0 minutes 37 seconds 172 msec
