                         Program Version 5.0.1 -  RELEASE  -
|  1> !uks pbe nori verytightscf soscf notrah defgrid3
|  2>
|  3> %pal
|  4>   nprocs 32
|  5> end
|  6> %coords
|  7>   charge 0
|  8>   mult 1
|  9>   units bohrs
| 10>   coords
| 11>     Cd 0.0 0.0 0.0
| 12>   end
| 13> end
| 14> %basis
| 15>   gtoname "Cd_ano-r3.basis"
| 16>   delECP Cd
| 17> end
| 18> %rel
| 19>   method zora
| 20>   modelpot 1, 0, 0, 0
| 21>   c 137.035999084
| 22> endd                         ****END OF INPUT****

CARTESIAN COORDINATES (ANGSTROEM)
---------------------------------
  Cd     0.000000    0.000000    0.000000

 Total Charge           Charge          ....    0
 Multiplicity           Mult            ....    1
 Number of Electrons    NEL             ....   48
 Basis Dimension        Dim             ....  101

ORBITAL ENERGIES
----------------
                 SPIN UP ORBITALS
  NO   OCC          E(Eh)            E(eV)
   0   1.0000   -1006.480412    -27387.7244
   1   1.0000    -145.984497     -3972.4401
   2   1.0000    -131.411011     -3575.8754
   3   1.0000    -131.411011     -3575.8754
   4   1.0000    -131.411011     -3575.8754
   5   1.0000     -27.078892      -736.8541
   6   1.0000     -22.254405      -605.5731
   7   1.0000     -22.254405      -605.5731
   8   1.0000     -22.254405      -605.5731
   9   1.0000     -14.543752      -395.7556
  10   1.0000     -14.543752      -395.7556
  11   1.0000     -14.543752      -395.7556
  12   1.0000     -14.543752      -395.7556
  13   1.0000     -14.543752      -395.7556
  14   1.0000      -3.896872      -106.0393
  15   1.0000      -2.473676       -67.3122
  16   1.0000      -2.473676       -67.3122
  17   1.0000      -2.473676       -67.3122
  18   1.0000      -0.429526       -11.6880
  19   1.0000      -0.429526       -11.6880
  20   1.0000      -0.429526       -11.6880
  21   1.0000      -0.429526       -11.6880
  22   1.0000      -0.429526       -11.6880
  23   1.0000      -0.207729        -5.6526
  24   0.0000       0.058192         1.5835
  25   0.0000       0.058192         1.5835
  26   0.0000       0.058192         1.5835
  27   0.0000       0.089743         2.4420
  28   0.0000       0.360301         9.8043

                 SPIN DOWN ORBITALS
  NO   OCC          E(Eh)            E(eV)
   0   1.0000   -1006.480412    -27387.7244
   1   1.0000    -145.984497     -3972.4401
   2   1.0000    -131.411011     -3575.8754
   3   1.0000    -131.411011     -3575.8754
   4   1.0000    -131.411011     -3575.8754
   5   1.0000     -27.078892      -736.8541
   6   1.0000     -22.254405      -605.5731
   7   1.0000     -22.254405      -605.5731
   8   1.0000     -22.254405      -605.5731
   9   1.0000     -14.543752      -395.7556
  10   1.0000     -14.543752      -395.7556
  11   1.0000     -14.543752      -395.7556
  12   1.0000     -14.543752      -395.7556
  13   1.0000     -14.543752      -395.7556
  14   1.0000      -3.896872      -106.0393
  15   1.0000      -2.473676       -67.3122
  16   1.0000      -2.473676       -67.3122
  17   1.0000      -2.473676       -67.3122
  18   1.0000      -0.429526       -11.6880
  19   1.0000      -0.429526       -11.6880
  20   1.0000      -0.429526       -11.6880
  21   1.0000      -0.429526       -11.6880
  22   1.0000      -0.429526       -11.6880
  23   1.0000      -0.207729        -5.6526
  24   0.0000       0.058192         1.5835
  25   0.0000       0.058192         1.5835
  26   0.0000       0.058192         1.5835
  27   0.0000       0.089743         2.4420
  28   0.0000       0.360301         9.8043

MULLIKEN ATOMIC CHARGES AND SPIN POPULATIONS
--------------------------------------------
   0 Cd:   -0.000000    0.000000
Sum of atomic charges         :   -0.0000000

LOEWDIN ATOMIC CHARGES AND SPIN POPULATIONS
-------------------------------------------
   0 Cd:   -0.000000    0.000000

FINAL SINGLE POINT ENERGY     -5680.941433871950

DIPOLE MOMENT
-------------
                                X             Y             Z
Electronic contribution:     -0.00000       0.00000       0.00000
Nuclear contribution   :      0.00000       0.00000       0.00000
                        -----------------------------------------
Total Dipole Moment    :     -0.00000       0.00000       0.00000
                        -----------------------------------------
Magnitude (a.u.)       :      0.00000
Magnitude (Debye)      :      0.00000

Rotational constants in cm-1:     0.000000     0.000000     0.000000
Rotational constants in MHz :     0.000000     0.000000     0.000000

                             ****ORCA TERMINATED NORMALLY****
TOTAL RUN TIME: 0 days 0 hours 16 minutes 7 seconds 16 msec
