                         Program Version 5.0.1 -  RELEASE  -
|  1> !uks pbe nori verytightscf soscf notrah defgrid3
|  2>
|  3> %pal
|  4>   nprocs 32
|  5> end
|  6> %coords
|  7>   charge 0
|  8>   mult 1
|  9>   units bohrs
| 10>   coords
| 11>     Cd 0.0 0.0 0.0
| 12>   end
| 13> end
| 14> %basis
| 15>   gtoname "Cd_ano-rcc-vqzp.basis"
| 16>   delECP Cd
| 17> end
| 18> %rel
| 19>   method zora
| 20>   modelpot 1, 0, 0, 0
| 21>   c 137.035999084
| 22> endd                         ****END OF INPUT****

CARTESIAN COORDINATES (ANGSTROEM)
---------------------------------
  Cd     0.000000    0.000000    0.000000

 Total Charge           Charge          ....    0
 Multiplicity           Mult            ....    1
 Number of Electrons    NEL             ....   48
 Basis Dimension        Dim             ....  104

ORBITAL ENERGIES
----------------
                 SPIN UP ORBITALS
  NO   OCC          E(Eh)            E(eV)
   0   1.0000   -1003.933578    -27318.4215
   1   1.0000    -145.724097     -3965.3543
   2   1.0000    -131.417595     -3576.0546
   3   1.0000    -131.417595     -3576.0546
   4   1.0000    -131.417595     -3576.0546
   5   1.0000     -27.032008      -735.5783
   6   1.0000     -22.257631      -605.6609
   7   1.0000     -22.257631      -605.6609
   8   1.0000     -22.257631      -605.6609
   9   1.0000     -14.548063      -395.8729
  10   1.0000     -14.548063      -395.8729
  11   1.0000     -14.548063      -395.8729
  12   1.0000     -14.548063      -395.8729
  13   1.0000     -14.548063      -395.8729
  14   1.0000      -3.888470      -105.8107
  15   1.0000      -2.474796       -67.3426
  16   1.0000      -2.474796       -67.3426
  17   1.0000      -2.474796       -67.3426
  18   1.0000      -0.430402       -11.7118
  19   1.0000      -0.430402       -11.7118
  20   1.0000      -0.430402       -11.7118
  21   1.0000      -0.430402       -11.7118
  22   1.0000      -0.430402       -11.7118
  23   1.0000      -0.207331        -5.6418
  24   0.0000      -0.042095        -1.1455
  25   0.0000      -0.042095        -1.1455
  26   0.0000      -0.042095        -1.1455
  27   0.0000       0.074997         2.0408
  28   0.0000       0.187343         5.0979

                 SPIN DOWN ORBITALS
  NO   OCC          E(Eh)            E(eV)
   0   1.0000   -1003.933578    -27318.4215
   1   1.0000    -145.724097     -3965.3543
   2   1.0000    -131.417595     -3576.0546
   3   1.0000    -131.417595     -3576.0546
   4   1.0000    -131.417595     -3576.0546
   5   1.0000     -27.032008      -735.5783
   6   1.0000     -22.257631      -605.6609
   7   1.0000     -22.257631      -605.6609
   8   1.0000     -22.257631      -605.6609
   9   1.0000     -14.548063      -395.8729
  10   1.0000     -14.548063      -395.8729
  11   1.0000     -14.548063      -395.8729
  12   1.0000     -14.548063      -395.8729
  13   1.0000     -14.548063      -395.8729
  14   1.0000      -3.888470      -105.8107
  15   1.0000      -2.474796       -67.3426
  16   1.0000      -2.474796       -67.3426
  17   1.0000      -2.474796       -67.3426
  18   1.0000      -0.430402       -11.7118
  19   1.0000      -0.430402       -11.7118
  20   1.0000      -0.430402       -11.7118
  21   1.0000      -0.430402       -11.7118
  22   1.0000      -0.430402       -11.7118
  23   1.0000      -0.207331        -5.6418
  24   0.0000      -0.042095        -1.1455
  25   0.0000      -0.042095        -1.1455
  26   0.0000      -0.042095        -1.1455
  27   0.0000       0.074997         2.0408
  28   0.0000       0.187343         5.0979

MULLIKEN ATOMIC CHARGES AND SPIN POPULATIONS
--------------------------------------------
   0 Cd:   -0.000000    0.000000
Sum of atomic charges         :   -0.0000000

LOEWDIN ATOMIC CHARGES AND SPIN POPULATIONS
-------------------------------------------
   0 Cd:   -0.000000    0.000000

FINAL SINGLE POINT ENERGY     -5675.189682606167

DIPOLE MOMENT
-------------
                                X             Y             Z
Electronic contribution:     -0.00000       0.00000       0.00000
Nuclear contribution   :      0.00000       0.00000       0.00000
                        -----------------------------------------
Total Dipole Moment    :     -0.00000       0.00000       0.00000
                        -----------------------------------------
Magnitude (a.u.)       :      0.00000
Magnitude (Debye)      :      0.00000

Rotational constants in cm-1:     0.000000     0.000000     0.000000
Rotational constants in MHz :     0.000000     0.000000     0.000000

                             ****ORCA TERMINATED NORMALLY****
TOTAL RUN TIME: 0 days 0 hours 19 minutes 42 seconds 564 msec
