                         Program Version 5.0.1 -  RELEASE  -
|  1> !uks pbe nori verytightscf soscf notrah defgrid3
|  2>
|  3> %pal
|  4>   nprocs 32
|  5> end
|  6> %coords
|  7>   charge 0
|  8>   mult 2
|  9>   units bohrs
| 10>   coords
| 11>     I 0.0 0.0 0.0
| 12>   end
| 13> end
| 14> %basis
| 15>   gtoname "I_ano-r3.basis"
| 16>   delECP I
| 17> end
| 18> %rel
| 19>   method zora
| 20>   modelpot 1, 0, 0, 0
| 21>   c 137.035999084
| 22> endd                         ****END OF INPUT****

CARTESIAN COORDINATES (ANGSTROEM)
---------------------------------
  I      0.000000    0.000000    0.000000

 Total Charge           Charge          ....    0
 Multiplicity           Mult            ....    2
 Number of Electrons    NEL             ....   53
 Basis Dimension        Dim             ....  120

ORBITAL ENERGIES
----------------
                 SPIN UP ORBITALS
  NO   OCC          E(Eh)            E(eV)
   0   1.0000   -1260.353142    -34295.9526
   1   1.0000    -189.172876     -5147.6557
   2   1.0000    -170.470124     -4638.7279
   3   1.0000    -170.466522     -4638.6299
   4   1.0000    -170.466522     -4638.6299
   5   1.0000     -37.959797     -1032.9386
   6   1.0000     -31.844268      -866.5266
   7   1.0000     -31.836658      -866.3195
   8   1.0000     -31.836658      -866.3195
   9   1.0000     -22.412605      -609.8780
  10   1.0000     -22.410889      -609.8313
  11   1.0000     -22.410889      -609.8313
  12   1.0000     -22.405717      -609.6905
  13   1.0000     -22.405717      -609.6905
  14   1.0000      -6.643400      -180.7761
  15   1.0000      -4.725145      -128.5777
  16   1.0000      -4.708039      -128.1123
  17   1.0000      -4.708039      -128.1123
  18   1.0000      -1.859098       -50.5886
  19   1.0000      -1.853995       -50.4498
  20   1.0000      -1.853995       -50.4498
  21   1.0000      -1.839051       -50.0431
  22   1.0000      -1.839051       -50.0431
  23   1.0000      -0.649406       -17.6712
  24   1.0000      -0.298142        -8.1129
  25   1.0000      -0.258592        -7.0366
  26   1.0000      -0.258592        -7.0366
  27   0.0000       0.008806         0.2396
  28   0.0000       0.154593         4.2067
  29   0.0000       0.172689         4.6991
  30   0.0000       0.172689         4.6991
  31   0.0000       0.196040         5.3345

                 SPIN DOWN ORBITALS
  NO   OCC          E(Eh)            E(eV)
   0   1.0000   -1260.352078    -34295.9236
   1   1.0000    -189.172375     -5147.6420
   2   1.0000    -170.468258     -4638.6771
   3   1.0000    -170.466088     -4638.6181
   4   1.0000    -170.466088     -4638.6181
   5   1.0000     -37.958831     -1032.9123
   6   1.0000     -31.842007      -866.4651
   7   1.0000     -31.836142      -866.3055
   8   1.0000     -31.836142      -866.3055
   9   1.0000     -22.410739      -609.8272
  10   1.0000     -22.409430      -609.7916
  11   1.0000     -22.409430      -609.7916
  12   1.0000     -22.405477      -609.6840
  13   1.0000     -22.405477      -609.6840
  14   1.0000      -6.641084      -180.7131
  15   1.0000      -4.719882      -128.4345
  16   1.0000      -4.707030      -128.0848
  17   1.0000      -4.707030      -128.0848
  18   1.0000      -1.851283       -50.3760
  19   1.0000      -1.848374       -50.2968
  20   1.0000      -1.848374       -50.2968
  21   1.0000      -1.838407       -50.0256
  22   1.0000      -1.838407       -50.0256
  23   1.0000      -0.623346       -16.9621
  24   1.0000      -0.247472        -6.7340
  25   1.0000      -0.247472        -6.7340
  26   0.0000      -0.241618        -6.5748
  27   0.0000       0.017453         0.4749
  28   0.0000       0.177447         4.8286
  29   0.0000       0.177447         4.8286
  30   0.0000       0.180544         4.9129

MULLIKEN ATOMIC CHARGES AND SPIN POPULATIONS
--------------------------------------------
   0 I :   -0.000000    1.000000
Sum of atomic charges         :   -0.0000000

LOEWDIN ATOMIC CHARGES AND SPIN POPULATIONS
-------------------------------------------
   0 I :   -0.000000    1.000000

FINAL SINGLE POINT ENERGY     -7247.912219802936

DIPOLE MOMENT
-------------
                                X             Y             Z
Electronic contribution:     -0.00000       0.00000       0.00000
Nuclear contribution   :      0.00000       0.00000       0.00000
                        -----------------------------------------
Total Dipole Moment    :     -0.00000       0.00000       0.00000
                        -----------------------------------------
Magnitude (a.u.)       :      0.00000
Magnitude (Debye)      :      0.00000

Rotational constants in cm-1:     0.000000     0.000000     0.000000
Rotational constants in MHz :     0.000000     0.000000     0.000000

                             ****ORCA TERMINATED NORMALLY****
TOTAL RUN TIME: 0 days 0 hours 57 minutes 40 seconds 273 msec
