                         Program Version 5.0.1 -  RELEASE  -
|  1> !uks pbe nori verytightscf soscf notrah defgrid3
|  2>
|  3> %pal
|  4>   nprocs 32
|  5> end
|  6> %coords
|  7>   charge 0
|  8>   mult 2
|  9>   units bohrs
| 10>   coords
| 11>     I 0.0 0.0 0.0
| 12>   end
| 13> end
| 14> %basis
| 15>   gtoname "I_ano-rcc-vqzp.basis"
| 16>   delECP I
| 17> end
| 18> %rel
| 19>   method zora
| 20>   modelpot 1, 0, 0, 0
| 21>   c 137.035999084
| 22> endd                         ****END OF INPUT****

CARTESIAN COORDINATES (ANGSTROEM)
---------------------------------
  I      0.000000    0.000000    0.000000

 Total Charge           Charge          ....    0
 Multiplicity           Mult            ....    2
 Number of Electrons    NEL             ....   53
 Basis Dimension        Dim             ....   93

ORBITAL ENERGIES
----------------
                 SPIN UP ORBITALS
  NO   OCC          E(Eh)            E(eV)
   0   1.0000   -1257.005190    -34204.8502
   1   1.0000    -188.837264     -5138.5232
   2   1.0000    -170.491059     -4639.2976
   3   1.0000    -170.487443     -4639.1992
   4   1.0000    -170.487443     -4639.1992
   5   1.0000     -37.899883     -1031.3083
   6   1.0000     -31.854000      -866.7914
   7   1.0000     -31.846304      -866.5820
   8   1.0000     -31.846304      -866.5820
   9   1.0000     -22.424965      -610.2143
  10   1.0000     -22.423231      -610.1671
  11   1.0000     -22.423231      -610.1671
  12   1.0000     -22.418007      -610.0250
  13   1.0000     -22.418007      -610.0250
  14   1.0000      -6.630953      -180.4374
  15   1.0000      -4.727018      -128.6287
  16   1.0000      -4.709806      -128.1603
  17   1.0000      -4.709806      -128.1603
  18   1.0000      -1.861072       -50.6423
  19   1.0000      -1.855950       -50.5030
  20   1.0000      -1.855950       -50.5030
  21   1.0000      -1.840941       -50.0946
  22   1.0000      -1.840941       -50.0946
  23   1.0000      -0.648704       -17.6521
  24   1.0000      -0.299481        -8.1493
  25   1.0000      -0.259963        -7.0740
  26   1.0000      -0.259963        -7.0740
  27   0.0000       0.058409         1.5894
  28   0.0000       0.077485         2.1085
  29   0.0000       0.090111         2.4521
  30   0.0000       0.090111         2.4521
  31   0.0000       0.149638         4.0719

                 SPIN DOWN ORBITALS
  NO   OCC          E(Eh)            E(eV)
   0   1.0000   -1257.004130    -34204.8213
   1   1.0000    -188.836772     -5138.5098
   2   1.0000    -170.489208     -4639.2472
   3   1.0000    -170.487018     -4639.1876
   4   1.0000    -170.487018     -4639.1876
   5   1.0000     -37.898923     -1031.2821
   6   1.0000     -31.851755      -866.7303
   7   1.0000     -31.845791      -866.5680
   8   1.0000     -31.845791      -866.5680
   9   1.0000     -22.423115      -610.1640
  10   1.0000     -22.421785      -610.1278
  11   1.0000     -22.421785      -610.1278
  12   1.0000     -22.417769      -610.0185
  13   1.0000     -22.417769      -610.0185
  14   1.0000      -6.628623      -180.3740
  15   1.0000      -4.721755      -128.4855
  16   1.0000      -4.708793      -128.1328
  17   1.0000      -4.708793      -128.1328
  18   1.0000      -1.853251       -50.4295
  19   1.0000      -1.850321       -50.3498
  20   1.0000      -1.850321       -50.3498
  21   1.0000      -1.840288       -50.0768
  22   1.0000      -1.840288       -50.0768
  23   1.0000      -0.622660       -16.9434
  24   1.0000      -0.248844        -6.7714
  25   1.0000      -0.248844        -6.7714
  26   0.0000      -0.243046        -6.6136
  27   0.0000       0.069741         1.8978
  28   0.0000       0.093484         2.5438
  29   0.0000       0.093484         2.5438
  30   0.0000       0.097301         2.6477

MULLIKEN ATOMIC CHARGES AND SPIN POPULATIONS
--------------------------------------------
   0 I :   -0.000000    1.000000
Sum of atomic charges         :   -0.0000000

LOEWDIN ATOMIC CHARGES AND SPIN POPULATIONS
-------------------------------------------
   0 I :   -0.000000    1.000000

FINAL SINGLE POINT ENERGY     -7240.268442512382

DIPOLE MOMENT
-------------
                                X             Y             Z
Electronic contribution:      0.00000       0.00000      -0.00000
Nuclear contribution   :      0.00000       0.00000       0.00000
                        -----------------------------------------
Total Dipole Moment    :      0.00000       0.00000      -0.00000
                        -----------------------------------------
Magnitude (a.u.)       :      0.00000
Magnitude (Debye)      :      0.00000

Rotational constants in cm-1:     0.000000     0.000000     0.000000
Rotational constants in MHz :     0.000000     0.000000     0.000000

                             ****ORCA TERMINATED NORMALLY****
TOTAL RUN TIME: 0 days 0 hours 19 minutes 27 seconds 79 msec
