                         Program Version 5.0.1 -  RELEASE  -
|  1> !uks pbe nori verytightscf soscf notrah defgrid3
|  2>
|  3> %pal
|  4>   nprocs 32
|  5> end
|  6> %coords
|  7>   charge 0
|  8>   mult 2
|  9>   units bohrs
| 10>   coords
| 11>     I 0.0 0.0 0.0
| 12>   end
| 13> end
| 14> %basis
| 15>   gtoname "I_sapporo-qzp-2012-diffuse.basis"
| 16>   delECP I
| 17> end
| 18> %rel
| 19>   method zora
| 20>   modelpot 1, 0, 0, 0
| 21>   c 137.035999084
| 22> endd                         ****END OF INPUT****

CARTESIAN COORDINATES (ANGSTROEM)
---------------------------------
  I      0.000000    0.000000    0.000000

 Total Charge           Charge          ....    0
 Multiplicity           Mult            ....    2
 Number of Electrons    NEL             ....   53
 Basis Dimension        Dim             ....  181

ORBITAL ENERGIES
----------------
                 SPIN UP ORBITALS
  NO   OCC          E(Eh)            E(eV)
   0   1.0000   -1252.780242    -34089.8835
   1   1.0000    -187.425567     -5100.1090
   2   1.0000    -170.850096     -4649.0675
   3   1.0000    -170.846508     -4648.9698
   4   1.0000    -170.846508     -4648.9698
   5   1.0000     -37.495687     -1020.3095
   6   1.0000     -31.826975      -866.0560
   7   1.0000     -31.819358      -865.8487
   8   1.0000     -31.819358      -865.8487
   9   1.0000     -22.431561      -610.3938
  10   1.0000     -22.429845      -610.3471
  11   1.0000     -22.429845      -610.3471
  12   1.0000     -22.424671      -610.2063
  13   1.0000     -22.424671      -610.2063
  14   1.0000      -6.567198      -178.7026
  15   1.0000      -4.730455      -128.7222
  16   1.0000      -4.713371      -128.2573
  17   1.0000      -4.713371      -128.2573
  18   1.0000      -1.873412       -50.9781
  19   1.0000      -1.868330       -50.8398
  20   1.0000      -1.868330       -50.8398
  21   1.0000      -1.853443       -50.4347
  22   1.0000      -1.853443       -50.4347
  23   1.0000      -0.641182       -17.4474
  24   1.0000      -0.299420        -8.1476
  25   1.0000      -0.259934        -7.0732
  26   1.0000      -0.259934        -7.0732
  27   0.0000      -0.018481        -0.5029
  28   0.0000       0.019278         0.5246
  29   0.0000       0.024473         0.6659
  30   0.0000       0.024473         0.6659
  31   0.0000       0.053332         1.4512

                 SPIN DOWN ORBITALS
  NO   OCC          E(Eh)            E(eV)
   0   1.0000   -1252.779239    -34089.8562
   1   1.0000    -187.425110     -5100.0965
   2   1.0000    -170.848330     -4649.0194
   3   1.0000    -170.846098     -4648.9587
   4   1.0000    -170.846098     -4648.9587
   5   1.0000     -37.494744     -1020.2838
   6   1.0000     -31.824665      -865.9932
   7   1.0000     -31.818834      -865.8345
   8   1.0000     -31.818834      -865.8345
   9   1.0000     -22.429678      -610.3426
  10   1.0000     -22.428374      -610.3071
  11   1.0000     -22.428374      -610.3071
  12   1.0000     -22.424434      -610.1999
  13   1.0000     -22.424434      -610.1999
  14   1.0000      -6.564812      -178.6376
  15   1.0000      -4.725223      -128.5799
  16   1.0000      -4.712351      -128.2296
  17   1.0000      -4.712351      -128.2296
  18   1.0000      -1.865689       -50.7680
  19   1.0000      -1.862771       -50.6886
  20   1.0000      -1.862771       -50.6886
  21   1.0000      -1.852785       -50.4169
  22   1.0000      -1.852785       -50.4169
  23   1.0000      -0.614712       -16.7272
  24   1.0000      -0.248858        -6.7718
  25   1.0000      -0.248858        -6.7718
  26   0.0000      -0.243006        -6.6125
  27   0.0000      -0.012518        -0.3406
  28   0.0000       0.025757         0.7009
  29   0.0000       0.025757         0.7009
  30   0.0000       0.028948         0.7877

MULLIKEN ATOMIC CHARGES AND SPIN POPULATIONS
--------------------------------------------
   0 I :   -0.000000    1.000000
Sum of atomic charges         :   -0.0000000

LOEWDIN ATOMIC CHARGES AND SPIN POPULATIONS
-------------------------------------------
   0 I :   -0.000000    1.000000

FINAL SINGLE POINT ENERGY     -7212.301117449871

DIPOLE MOMENT
-------------
                                X             Y             Z
Electronic contribution:     -0.00000      -0.00000      -0.00000
Nuclear contribution   :      0.00000       0.00000       0.00000
                        -----------------------------------------
Total Dipole Moment    :     -0.00000      -0.00000      -0.00000
                        -----------------------------------------
Magnitude (a.u.)       :      0.00000
Magnitude (Debye)      :      0.00000

Rotational constants in cm-1:     0.000000     0.000000     0.000000
Rotational constants in MHz :     0.000000     0.000000     0.000000

                             ****ORCA TERMINATED NORMALLY****
TOTAL RUN TIME: 0 days 0 hours 0 minutes 41 seconds 924 msec
