                         Program Version 5.0.1 -  RELEASE  -
|  1> !uks pbe nori verytightscf soscf notrah defgrid3
|  2>
|  3> %pal
|  4>   nprocs 32
|  5> end
|  6> %coords
|  7>   charge 0
|  8>   mult 2
|  9>   units bohrs
| 10>   coords
| 11>     In 0.0 0.0 0.0
| 12>   end
| 13> end
| 14> %basis
| 15>   gtoname "In_ano-r3.basis"
| 16>   delECP In
| 17> end
| 18> %rel
| 19>   method zora
| 20>   modelpot 1, 0, 0, 0
| 21>   c 137.035999084
| 22> endd                         ****END OF INPUT****

CARTESIAN COORDINATES (ANGSTROEM)
---------------------------------
  In     0.000000    0.000000    0.000000

 Total Charge           Charge          ....    0
 Multiplicity           Mult            ....    2
 Number of Electrons    NEL             ....   49
 Basis Dimension        Dim             ....  104

ORBITAL ENERGIES
----------------
                 SPIN UP ORBITALS
  NO   OCC          E(Eh)            E(eV)
   0   1.0000   -1054.542502    -28695.5603
   1   1.0000    -154.100515     -4193.2882
   2   1.0000    -138.777665     -3776.3323
   3   1.0000    -138.777665     -3776.3323
   4   1.0000    -138.776522     -3776.3012
   5   1.0000     -29.098083      -791.7991
   6   1.0000     -24.034331      -654.0074
   7   1.0000     -24.034331      -654.0074
   8   1.0000     -24.031347      -653.9262
   9   1.0000     -15.994480      -435.2319
  10   1.0000     -15.994480      -435.2319
  11   1.0000     -15.992456      -435.1768
  12   1.0000     -15.992456      -435.1768
  13   1.0000     -15.991777      -435.1584
  14   1.0000      -4.402354      -119.7941
  15   1.0000      -2.888405       -78.5975
  16   1.0000      -2.888405       -78.5975
  17   1.0000      -2.880775       -78.3899
  18   1.0000      -0.687916       -18.7191
  19   1.0000      -0.687916       -18.7191
  20   1.0000      -0.681492       -18.5443
  21   1.0000      -0.681492       -18.5443
  22   1.0000      -0.679016       -18.4770
  23   1.0000      -0.307951        -8.3798
  24   1.0000      -0.104078        -2.8321
  25   0.0000      -0.096526        -2.6266
  26   0.0000      -0.096526        -2.6266
  27   0.0000      -0.004576        -0.1245
  28   0.0000       0.124495         3.3877
  29   0.0000       0.128404         3.4940

                 SPIN DOWN ORBITALS
  NO   OCC          E(Eh)            E(eV)
   0   1.0000   -1054.542139    -28695.5505
   1   1.0000    -154.100472     -4193.2870
   2   1.0000    -138.777597     -3776.3304
   3   1.0000    -138.777597     -3776.3304
   4   1.0000    -138.775988     -3776.2866
   5   1.0000     -29.097795      -791.7913
   6   1.0000     -24.034239      -654.0049
   7   1.0000     -24.034239      -654.0049
   8   1.0000     -24.030550      -653.9045
   9   1.0000     -15.994532      -435.2333
  10   1.0000     -15.994532      -435.2333
  11   1.0000     -15.992016      -435.1649
  12   1.0000     -15.992016      -435.1649
  13   1.0000     -15.991168      -435.1418
  14   1.0000      -4.401815      -119.7795
  15   1.0000      -2.888361       -78.5963
  16   1.0000      -2.888361       -78.5963
  17   1.0000      -2.878979       -78.3410
  18   1.0000      -0.687600       -18.7106
  19   1.0000      -0.687600       -18.7106
  20   1.0000      -0.677847       -18.4452
  21   1.0000      -0.677847       -18.4452
  22   1.0000      -0.674833       -18.3631
  23   1.0000      -0.289882        -7.8881
  24   0.0000      -0.085366        -2.3229
  25   0.0000      -0.085366        -2.3229
  26   0.0000      -0.063423        -1.7258
  27   0.0000       0.015996         0.4353
  28   0.0000       0.140833         3.8323

MULLIKEN ATOMIC CHARGES AND SPIN POPULATIONS
--------------------------------------------
   0 In:    0.000000    1.000000
Sum of atomic charges         :    0.0000000

LOEWDIN ATOMIC CHARGES AND SPIN POPULATIONS
-------------------------------------------
   0 In:    0.000000    1.000000

FINAL SINGLE POINT ENERGY     -5975.862890079484

DIPOLE MOMENT
-------------
                                X             Y             Z
Electronic contribution:      0.00000       0.00000       0.00000
Nuclear contribution   :      0.00000       0.00000       0.00000
                        -----------------------------------------
Total Dipole Moment    :      0.00000       0.00000       0.00000
                        -----------------------------------------
Magnitude (a.u.)       :      0.00000
Magnitude (Debye)      :      0.00000

Rotational constants in cm-1:     0.000000     0.000000     0.000000
Rotational constants in MHz :     0.000000     0.000000     0.000000

                             ****ORCA TERMINATED NORMALLY****
TOTAL RUN TIME: 0 days 0 hours 49 minutes 9 seconds 658 msec
