                         Program Version 5.0.1 -  RELEASE  -
|  1> !uks pbe nori verytightscf soscf notrah defgrid3
|  2>
|  3> %pal
|  4>   nprocs 32
|  5> end
|  6> %coords
|  7>   charge 0
|  8>   mult 2
|  9>   units bohrs
| 10>   coords
| 11>     In 0.0 0.0 0.0
| 12>   end
| 13> end
| 14> %basis
| 15>   gtoname "In_ano-rcc-vqzp.basis"
| 16>   delECP In
| 17> end
| 18> %rel
| 19>   method zora
| 20>   modelpot 1, 0, 0, 0
| 21>   c 137.035999084
| 22> endd                         ****END OF INPUT****

CARTESIAN COORDINATES (ANGSTROEM)
---------------------------------
  In     0.000000    0.000000    0.000000

 Total Charge           Charge          ....    0
 Multiplicity           Mult            ....    2
 Number of Electrons    NEL             ....   49
 Basis Dimension        Dim             ....   93

ORBITAL ENERGIES
----------------
                 SPIN UP ORBITALS
  NO   OCC          E(Eh)            E(eV)
   0   1.0000   -1051.817954    -28621.4216
   1   1.0000    -153.820090     -4185.6574
   2   1.0000    -138.782860     -3776.4736
   3   1.0000    -138.782860     -3776.4736
   4   1.0000    -138.781723     -3776.4427
   5   1.0000     -29.046784      -790.4032
   6   1.0000     -24.037158      -654.0843
   7   1.0000     -24.037158      -654.0843
   8   1.0000     -24.034172      -654.0031
   9   1.0000     -15.998597      -435.3440
  10   1.0000     -15.998597      -435.3440
  11   1.0000     -15.996572      -435.2889
  12   1.0000     -15.996572      -435.2889
  13   1.0000     -15.995893      -435.2704
  14   1.0000      -4.393155      -119.5438
  15   1.0000      -2.889685       -78.6323
  16   1.0000      -2.889685       -78.6323
  17   1.0000      -2.882043       -78.4244
  18   1.0000      -0.689054       -18.7501
  19   1.0000      -0.689054       -18.7501
  20   1.0000      -0.682613       -18.5748
  21   1.0000      -0.682613       -18.5748
  22   1.0000      -0.680133       -18.5074
  23   1.0000      -0.307089        -8.3563
  24   1.0000      -0.104216        -2.8359
  25   0.0000      -0.096578        -2.6280
  26   0.0000      -0.096578        -2.6280
  27   0.0000       0.064288         1.7494
  28   0.0000       0.106538         2.8990
  29   0.0000       0.110507         3.0071

                 SPIN DOWN ORBITALS
  NO   OCC          E(Eh)            E(eV)
   0   1.0000   -1051.817590    -28621.4117
   1   1.0000    -153.820037     -4185.6560
   2   1.0000    -138.782787     -3776.4716
   3   1.0000    -138.782787     -3776.4716
   4   1.0000    -138.781178     -3776.4279
   5   1.0000     -29.046493      -790.3953
   6   1.0000     -24.037059      -654.0816
   7   1.0000     -24.037059      -654.0816
   8   1.0000     -24.033376      -653.9814
   9   1.0000     -15.998639      -435.3451
  10   1.0000     -15.998639      -435.3451
  11   1.0000     -15.996128      -435.2768
  12   1.0000     -15.996128      -435.2768
  13   1.0000     -15.995282      -435.2537
  14   1.0000      -4.392614      -119.5291
  15   1.0000      -2.889649       -78.6313
  16   1.0000      -2.889649       -78.6313
  17   1.0000      -2.880232       -78.3751
  18   1.0000      -0.688755       -18.7420
  19   1.0000      -0.688755       -18.7420
  20   1.0000      -0.678976       -18.4759
  21   1.0000      -0.678976       -18.4759
  22   1.0000      -0.675946       -18.3934
  23   1.0000      -0.289069        -7.8660
  24   0.0000      -0.085212        -2.3187
  25   0.0000      -0.085212        -2.3187
  26   0.0000      -0.062774        -1.7082
  27   0.0000       0.083839         2.2814
  28   0.0000       0.123909         3.3717

MULLIKEN ATOMIC CHARGES AND SPIN POPULATIONS
--------------------------------------------
   0 In:    0.000000    1.000000
Sum of atomic charges         :    0.0000000

LOEWDIN ATOMIC CHARGES AND SPIN POPULATIONS
-------------------------------------------
   0 In:    0.000000    1.000000

FINAL SINGLE POINT ENERGY     -5969.715291968017

DIPOLE MOMENT
-------------
                                X             Y             Z
Electronic contribution:      0.00000      -0.00000      -0.00000
Nuclear contribution   :      0.00000       0.00000       0.00000
                        -----------------------------------------
Total Dipole Moment    :      0.00000      -0.00000      -0.00000
                        -----------------------------------------
Magnitude (a.u.)       :      0.00000
Magnitude (Debye)      :      0.00000

Rotational constants in cm-1:     0.000000     0.000000     0.000000
Rotational constants in MHz :     0.000000     0.000000     0.000000

                             ****ORCA TERMINATED NORMALLY****
TOTAL RUN TIME: 0 days 0 hours 18 minutes 10 seconds 935 msec
