                         Program Version 5.0.1 -  RELEASE  -
|  1> !uks pbe nori verytightscf soscf notrah defgrid3
|  2>
|  3> %pal
|  4>   nprocs 32
|  5> end
|  6> %coords
|  7>   charge 0
|  8>   mult 2
|  9>   units bohrs
| 10>   coords
| 11>     In 0.0 0.0 0.0
| 12>   end
| 13> end
| 14> %basis
| 15>   gtoname "In_sarc-zora-tzvpp.basis"
| 16>   delECP In
| 17> end
| 18> %rel
| 19>   method zora
| 20>   modelpot 1, 0, 0, 0
| 21>   c 137.035999084
| 22> endd                         ****END OF INPUT****

CARTESIAN COORDINATES (ANGSTROEM)
---------------------------------
  In     0.000000    0.000000    0.000000

 Total Charge           Charge          ....    0
 Multiplicity           Mult            ....    2
 Number of Electrons    NEL             ....   49
 Basis Dimension        Dim             ....   87

ORBITAL ENERGIES
----------------
                 SPIN UP ORBITALS
  NO   OCC          E(Eh)            E(eV)
   0   1.0000   -1059.513816    -28830.8367
   1   1.0000    -154.661235     -4208.5462
   2   1.0000    -138.653771     -3772.9609
   3   1.0000    -138.653771     -3772.9609
   4   1.0000    -138.652582     -3772.9286
   5   1.0000     -29.223906      -795.2229
   6   1.0000     -24.027049      -653.8093
   7   1.0000     -24.027049      -653.8093
   8   1.0000     -24.023740      -653.7192
   9   1.0000     -15.983329      -434.9285
  10   1.0000     -15.983329      -434.9285
  11   1.0000     -15.981081      -434.8673
  12   1.0000     -15.981081      -434.8673
  13   1.0000     -15.980327      -434.8468
  14   1.0000      -4.433218      -120.6340
  15   1.0000      -2.891940       -78.6937
  16   1.0000      -2.891940       -78.6937
  17   1.0000      -2.883074       -78.4524
  18   1.0000      -0.685694       -18.6587
  19   1.0000      -0.685694       -18.6587
  20   1.0000      -0.678333       -18.4584
  21   1.0000      -0.678333       -18.4584
  22   1.0000      -0.675582       -18.3835
  23   1.0000      -0.309813        -8.4305
  24   1.0000      -0.103754        -2.8233
  25   0.0000      -0.096716        -2.6318
  26   0.0000      -0.096716        -2.6318
  27   0.0000       0.027506         0.7485
  28   0.0000       0.033848         0.9210
  29   0.0000       0.033852         0.9212

                 SPIN DOWN ORBITALS
  NO   OCC          E(Eh)            E(eV)
   0   1.0000   -1059.513443    -28830.8265
   1   1.0000    -154.661195     -4208.5451
   2   1.0000    -138.653706     -3772.9592
   3   1.0000    -138.653706     -3772.9592
   4   1.0000    -138.652031     -3772.9136
   5   1.0000     -29.223625      -795.2153
   6   1.0000     -24.026960      -653.8068
   7   1.0000     -24.026960      -653.8068
   8   1.0000     -24.022944      -653.6975
   9   1.0000     -15.983386      -434.9300
  10   1.0000     -15.983386      -434.9300
  11   1.0000     -15.980658      -434.8558
  12   1.0000     -15.980658      -434.8558
  13   1.0000     -15.979738      -434.8308
  14   1.0000      -4.432690      -120.6196
  15   1.0000      -2.891888       -78.6923
  16   1.0000      -2.891888       -78.6923
  17   1.0000      -2.881350       -78.4055
  18   1.0000      -0.685308       -18.6482
  19   1.0000      -0.685308       -18.6482
  20   1.0000      -0.674784       -18.3618
  21   1.0000      -0.674784       -18.3618
  22   1.0000      -0.671482       -18.2719
  23   1.0000      -0.291804        -7.9404
  24   0.0000      -0.085207        -2.3186
  25   0.0000      -0.085207        -2.3186
  26   0.0000      -0.063252        -1.7212
  27   0.0000       0.050742         1.3808
  28   0.0000       0.050742         1.3808

MULLIKEN ATOMIC CHARGES AND SPIN POPULATIONS
--------------------------------------------
   0 In:    0.000000    1.000000
Sum of atomic charges         :    0.0000000

LOEWDIN ATOMIC CHARGES AND SPIN POPULATIONS
-------------------------------------------
   0 In:    0.000000    1.000000

FINAL SINGLE POINT ENERGY     -5987.924371933229

DIPOLE MOMENT
-------------
                                X             Y             Z
Electronic contribution:      0.00000      -0.00000       0.00000
Nuclear contribution   :      0.00000       0.00000       0.00000
                        -----------------------------------------
Total Dipole Moment    :      0.00000      -0.00000       0.00000
                        -----------------------------------------
Magnitude (a.u.)       :      0.00000
Magnitude (Debye)      :      0.00000

Rotational constants in cm-1:     0.000000     0.000000     0.000000
Rotational constants in MHz :     0.000000     0.000000     0.000000

                             ****ORCA TERMINATED NORMALLY****
TOTAL RUN TIME: 0 days 0 hours 0 minutes 35 seconds 985 msec
