                         Program Version 5.0.1 -  RELEASE  -
|  1> !uks pbe nori verytightscf soscf notrah defgrid3
|  2>
|  3> %pal
|  4>   nprocs 32
|  5> end
|  6> %coords
|  7>   charge 0
|  8>   mult 2
|  9>   units bohrs
| 10>   coords
| 11>     In 0.0 0.0 0.0
| 12>   end
| 13> end
| 14> %basis
| 15>   gtoname "In_sapporo-qzp-2012-diffuse.basis"
| 16>   delECP In
| 17> end
| 18> %rel
| 19>   method zora
| 20>   modelpot 1, 0, 0, 0
| 21>   c 137.035999084
| 22> endd                         ****END OF INPUT****

CARTESIAN COORDINATES (ANGSTROEM)
---------------------------------
  In     0.000000    0.000000    0.000000

 Total Charge           Charge          ....    0
 Multiplicity           Mult            ....    2
 Number of Electrons    NEL             ....   49
 Basis Dimension        Dim             ....  181

ORBITAL ENERGIES
----------------
                 SPIN UP ORBITALS
  NO   OCC          E(Eh)            E(eV)
   0   1.0000   -1050.960628    -28598.0926
   1   1.0000    -153.106905     -4166.2507
   2   1.0000    -139.109624     -3785.3653
   3   1.0000    -139.109624     -3785.3653
   4   1.0000    -139.108456     -3785.3335
   5   1.0000     -28.810085      -783.9623
   6   1.0000     -24.026388      -653.7913
   7   1.0000     -24.026388      -653.7913
   8   1.0000     -24.023451      -653.7113
   9   1.0000     -15.996209      -435.2790
  10   1.0000     -15.996209      -435.2790
  11   1.0000     -15.994206      -435.2245
  12   1.0000     -15.994206      -435.2245
  13   1.0000     -15.993535      -435.2062
  14   1.0000      -4.360115      -118.6448
  15   1.0000      -2.892770       -78.7163
  16   1.0000      -2.892770       -78.7163
  17   1.0000      -2.885134       -78.5085
  18   1.0000      -0.693988       -18.8844
  19   1.0000      -0.693988       -18.8844
  20   1.0000      -0.687523       -18.7084
  21   1.0000      -0.687523       -18.7084
  22   1.0000      -0.685032       -18.6407
  23   1.0000      -0.304960        -8.2984
  24   1.0000      -0.105025        -2.8579
  25   0.0000      -0.097564        -2.6549
  26   0.0000      -0.097564        -2.6548
  27   0.0000      -0.015701        -0.4272
  28   0.0000       0.005842         0.1590
  29   0.0000       0.010675         0.2905

                 SPIN DOWN ORBITALS
  NO   OCC          E(Eh)            E(eV)
   0   1.0000   -1050.960276    -28598.0830
   1   1.0000    -153.106881     -4166.2500
   2   1.0000    -139.109564     -3785.3637
   3   1.0000    -139.109564     -3785.3637
   4   1.0000    -139.107950     -3785.3198
   5   1.0000     -28.809804      -783.9546
   6   1.0000     -24.026300      -653.7889
   7   1.0000     -24.026300      -653.7889
   8   1.0000     -24.022641      -653.6893
   9   1.0000     -15.996266      -435.2805
  10   1.0000     -15.996266      -435.2805
  11   1.0000     -15.993770      -435.2126
  12   1.0000     -15.993770      -435.2126
  13   1.0000     -15.992926      -435.1897
  14   1.0000      -4.359529      -118.6288
  15   1.0000      -2.892730       -78.7152
  16   1.0000      -2.892730       -78.7152
  17   1.0000      -2.883303       -78.4587
  18   1.0000      -0.693684       -18.8761
  19   1.0000      -0.693684       -18.8761
  20   1.0000      -0.683921       -18.6104
  21   1.0000      -0.683921       -18.6104
  22   1.0000      -0.680894       -18.5281
  23   1.0000      -0.286806        -7.8044
  24   0.0000      -0.086734        -2.3602
  25   0.0000      -0.086734        -2.3602
  26   0.0000      -0.064539        -1.7562
  27   0.0000       0.000430         0.0117
  28   0.0000       0.020386         0.5547

MULLIKEN ATOMIC CHARGES AND SPIN POPULATIONS
--------------------------------------------
   0 In:   -0.000000    1.000000
Sum of atomic charges         :   -0.0000000

LOEWDIN ATOMIC CHARGES AND SPIN POPULATIONS
-------------------------------------------
   0 In:   -0.000000    1.000000

FINAL SINGLE POINT ENERGY     -5954.558491972799

DIPOLE MOMENT
-------------
                                X             Y             Z
Electronic contribution:      0.00000      -0.00000      -0.00000
Nuclear contribution   :      0.00000       0.00000       0.00000
                        -----------------------------------------
Total Dipole Moment    :      0.00000      -0.00000      -0.00000
                        -----------------------------------------
Magnitude (a.u.)       :      0.00000
Magnitude (Debye)      :      0.00000

Rotational constants in cm-1:     0.000000     0.000000     0.000000
Rotational constants in MHz :     0.000000     0.000000     0.000000

                             ****ORCA TERMINATED NORMALLY****
TOTAL RUN TIME: 0 days 0 hours 0 minutes 33 seconds 184 msec
