                         Program Version 5.0.1 -  RELEASE  -
|  1> !uks pbe nori verytightscf soscf notrah defgrid3
|  2>
|  3> %pal
|  4>   nprocs 32
|  5> end
|  6> %coords
|  7>   charge 0
|  8>   mult 2
|  9>   units bohrs
| 10>   coords
| 11>     In 0.0 0.0 0.0
| 12>   end
| 13> end
| 14> %basis
| 15>   gtoname "In_ugbs.basis"
| 16>   delECP In
| 17> end
| 18> %rel
| 19>   method zora
| 20>   modelpot 1, 0, 0, 0
| 21>   c 137.035999084
| 22> endd                         ****END OF INPUT****

CARTESIAN COORDINATES (ANGSTROEM)
---------------------------------
  In     0.000000    0.000000    0.000000

 Total Charge           Charge          ....    0
 Multiplicity           Mult            ....    2
 Number of Electrons    NEL             ....   49
 Basis Dimension        Dim             ....  176

ORBITAL ENERGIES
----------------
                 SPIN UP ORBITALS
  NO   OCC          E(Eh)            E(eV)
   0   1.0000   -1059.446007    -28828.9915
   1   1.0000    -154.551707     -4205.5658
   2   1.0000    -138.530578     -3769.6087
   3   1.0000    -138.530578     -3769.6087
   4   1.0000    -138.529337     -3769.5749
   5   1.0000     -29.189039      -794.2741
   6   1.0000     -23.994103      -652.9127
   7   1.0000     -23.994103      -652.9127
   8   1.0000     -23.990379      -652.8114
   9   1.0000     -15.950443      -434.0336
  10   1.0000     -15.950443      -434.0336
  11   1.0000     -15.947946      -433.9657
  12   1.0000     -15.947946      -433.9657
  13   1.0000     -15.947109      -433.9429
  14   1.0000      -4.424940      -120.4087
  15   1.0000      -2.886354       -78.5417
  16   1.0000      -2.886354       -78.5417
  17   1.0000      -2.876531       -78.2744
  18   1.0000      -0.686512       -18.6809
  19   1.0000      -0.686512       -18.6809
  20   1.0000      -0.678563       -18.4646
  21   1.0000      -0.678563       -18.4646
  22   1.0000      -0.675613       -18.3844
  23   1.0000      -0.309076        -8.4104
  24   1.0000      -0.103166        -2.8073
  25   0.0000      -0.096180        -2.6172
  26   0.0000      -0.096180        -2.6172
  27   0.0000       0.009542         0.2597
  28   0.0000       0.056692         1.5427
  29   0.0000       0.061882         1.6839

                 SPIN DOWN ORBITALS
  NO   OCC          E(Eh)            E(eV)
   0   1.0000   -1059.445637    -28828.9814
   1   1.0000    -154.551681     -4205.5651
   2   1.0000    -138.530522     -3769.6071
   3   1.0000    -138.530522     -3769.6071
   4   1.0000    -138.528797     -3769.5602
   5   1.0000     -29.188760      -794.2665
   6   1.0000     -23.994016      -652.9104
   7   1.0000     -23.994016      -652.9104
   8   1.0000     -23.989590      -652.7899
   9   1.0000     -15.950505      -434.0353
  10   1.0000     -15.950505      -434.0353
  11   1.0000     -15.947521      -433.9541
  12   1.0000     -15.947521      -433.9541
  13   1.0000     -15.946515      -433.9267
  14   1.0000      -4.424397      -120.3940
  15   1.0000      -2.886287       -78.5399
  16   1.0000      -2.886287       -78.5399
  17   1.0000      -2.874797       -78.2272
  18   1.0000      -0.686115       -18.6701
  19   1.0000      -0.686115       -18.6701
  20   1.0000      -0.675014       -18.3681
  21   1.0000      -0.675014       -18.3681
  22   1.0000      -0.671532       -18.2733
  23   1.0000      -0.291033        -7.9194
  24   0.0000      -0.084618        -2.3026
  25   0.0000      -0.084618        -2.3026
  26   0.0000      -0.062186        -1.6922
  27   0.0000       0.030066         0.8181
  28   0.0000       0.078041         2.1236

MULLIKEN ATOMIC CHARGES AND SPIN POPULATIONS
--------------------------------------------
   0 In:   -0.000000    1.000000
Sum of atomic charges         :   -0.0000000

LOEWDIN ATOMIC CHARGES AND SPIN POPULATIONS
-------------------------------------------
   0 In:   -0.000000    1.000000

FINAL SINGLE POINT ENERGY     -5988.374190261918

DIPOLE MOMENT
-------------
                                X             Y             Z
Electronic contribution:     -0.00000       0.00000       0.00000
Nuclear contribution   :      0.00000       0.00000       0.00000
                        -----------------------------------------
Total Dipole Moment    :     -0.00000       0.00000       0.00000
                        -----------------------------------------
Magnitude (a.u.)       :      0.00000
Magnitude (Debye)      :      0.00000

Rotational constants in cm-1:     0.000000     0.000000     0.000000
Rotational constants in MHz :     0.000000     0.000000     0.000000

                             ****ORCA TERMINATED NORMALLY****
TOTAL RUN TIME: 0 days 0 hours 0 minutes 35 seconds 824 msec
