                         Program Version 5.0.1 -  RELEASE  -
|  1> !uks pbe nori verytightscf soscf notrah defgrid3
|  2>
|  3> %pal
|  4>   nprocs 32
|  5> end
|  6> %coords
|  7>   charge 0
|  8>   mult 7
|  9>   units bohrs
| 10>   coords
| 11>     Mo 0.0 0.0 0.0
| 12>   end
| 13> end
| 14> %basis
| 15>   gtoname "Mo_ano-rcc-vqzp.basis"
| 16>   delECP Mo
| 17> end
| 18> %rel
| 19>   method zora
| 20>   modelpot 1, 0, 0, 0
| 21>   c 137.035999084
| 22> endd                         ****END OF INPUT****

CARTESIAN COORDINATES (ANGSTROEM)
---------------------------------
  Mo     0.000000    0.000000    0.000000

 Total Charge           Charge          ....    0
 Multiplicity           Mult            ....    7
 Number of Electrons    NEL             ....   42
 Basis Dimension        Dim             ....  104

ORBITAL ENERGIES
----------------
                 SPIN UP ORBITALS
  NO   OCC          E(Eh)            E(eV)
   0   1.0000    -744.892601    -20269.5582
   1   1.0000    -103.452393     -2815.0827
   2   1.0000     -92.855660     -2526.7310
   3   1.0000     -92.855660     -2526.7310
   4   1.0000     -92.855660     -2526.7310
   5   1.0000     -17.524366      -476.8622
   6   1.0000     -14.000258      -380.9664
   7   1.0000     -14.000258      -380.9664
   8   1.0000     -14.000258      -380.9664
   9   1.0000      -8.141040      -221.5290
  10   1.0000      -8.141040      -221.5290
  11   1.0000      -8.141040      -221.5290
  12   1.0000      -8.141040      -221.5290
  13   1.0000      -8.141040      -221.5290
  14   1.0000      -2.380353       -64.7727
  15   1.0000      -1.442520       -39.2530
  16   1.0000      -1.442520       -39.2530
  17   1.0000      -1.442520       -39.2530
  18   1.0000      -0.168524        -4.5858
  19   1.0000      -0.166667        -4.5352
  20   1.0000      -0.166667        -4.5352
  21   1.0000      -0.166667        -4.5352
  22   1.0000      -0.166667        -4.5352
  23   1.0000      -0.166667        -4.5352
  24   0.0000      -0.045144        -1.2284
  25   0.0000      -0.045144        -1.2284
  26   0.0000      -0.045144        -1.2284
  27   0.0000       0.018827         0.5123
  28   0.0000       0.115484         3.1425

                 SPIN DOWN ORBITALS
  NO   OCC          E(Eh)            E(eV)
   0   1.0000    -744.892595    -20269.5580
   1   1.0000    -103.436220     -2814.6426
   2   1.0000     -92.843659     -2526.4044
   3   1.0000     -92.843659     -2526.4044
   4   1.0000     -92.843659     -2526.4044
   5   1.0000     -17.515027      -476.6081
   6   1.0000     -13.989818      -380.6823
   7   1.0000     -13.989818      -380.6823
   8   1.0000     -13.989818      -380.6823
   9   1.0000      -8.125332      -221.1015
  10   1.0000      -8.125332      -221.1015
  11   1.0000      -8.125332      -221.1015
  12   1.0000      -8.125332      -221.1015
  13   1.0000      -8.125332      -221.1015
  14   1.0000      -2.281708       -62.0884
  15   1.0000      -1.332170       -36.2502
  16   1.0000      -1.332170       -36.2502
  17   1.0000      -1.332170       -36.2502
  18   0.0000      -0.059649        -1.6231
  19   0.0000      -0.040705        -1.1076
  20   0.0000      -0.040705        -1.1076
  21   0.0000      -0.040705        -1.1076
  22   0.0000      -0.040705        -1.1076

MULLIKEN ATOMIC CHARGES AND SPIN POPULATIONS
--------------------------------------------
   0 Mo:    0.000000    6.000000
Sum of atomic charges         :    0.0000000

LOEWDIN ATOMIC CHARGES AND SPIN POPULATIONS
-------------------------------------------
   0 Mo:   -0.000000    6.000000

FINAL SINGLE POINT ENERGY     -4094.173815305377

DIPOLE MOMENT
-------------
                                X             Y             Z
Electronic contribution:      0.00000      -0.00000       0.00000
Nuclear contribution   :      0.00000       0.00000       0.00000
                        -----------------------------------------
Total Dipole Moment    :      0.00000      -0.00000       0.00000
                        -----------------------------------------
Magnitude (a.u.)       :      0.00000
Magnitude (Debye)      :      0.00000

Rotational constants in cm-1:     0.000000     0.000000     0.000000
Rotational constants in MHz :     0.000000     0.000000     0.000000

                             ****ORCA TERMINATED NORMALLY****
TOTAL RUN TIME: 0 days 0 hours 16 minutes 23 seconds 892 msec
