                         Program Version 5.0.1 -  RELEASE  -
|  1> !uks pbe nori verytightscf soscf notrah defgrid3
|  2>
|  3> %pal
|  4>   nprocs 32
|  5> end
|  6> %coords
|  7>   charge 0
|  8>   mult 7
|  9>   units bohrs
| 10>   coords
| 11>     Mo 0.0 0.0 0.0
| 12>   end
| 13> end
| 14> %basis
| 15>   gtoname "Mo_ano-r3.basis"
| 16>   delECP Mo
| 17> end
| 18> %rel
| 19>   method zora
| 20>   modelpot 1, 0, 0, 0
| 21>   c 137.035999084
| 22> endd                         ****END OF INPUT****

CARTESIAN COORDINATES (ANGSTROEM)
---------------------------------
  Mo     0.000000    0.000000    0.000000

 Total Charge           Charge          ....    0
 Multiplicity           Mult            ....    7
 Number of Electrons    NEL             ....   42
 Basis Dimension        Dim             ....  101

ORBITAL ENERGIES
----------------
                 SPIN UP ORBITALS
  NO   OCC          E(Eh)            E(eV)
   0   1.0000    -746.458818    -20312.1771
   1   1.0000    -103.617914     -2819.5868
   2   1.0000     -92.863222     -2526.9368
   3   1.0000     -92.863222     -2526.9368
   4   1.0000     -92.863222     -2526.9368
   5   1.0000     -17.554318      -477.6773
   6   1.0000     -14.002257      -381.0208
   7   1.0000     -14.002257      -381.0208
   8   1.0000     -14.002257      -381.0208
   9   1.0000      -8.142949      -221.5809
  10   1.0000      -8.142949      -221.5809
  11   1.0000      -8.142949      -221.5809
  12   1.0000      -8.142949      -221.5809
  13   1.0000      -8.142949      -221.5809
  14   1.0000      -2.385381       -64.9095
  15   1.0000      -1.443120       -39.2693
  16   1.0000      -1.443120       -39.2693
  17   1.0000      -1.443120       -39.2693
  18   1.0000      -0.169617        -4.6155
  19   1.0000      -0.167312        -4.5528
  20   1.0000      -0.167312        -4.5528
  21   1.0000      -0.167312        -4.5528
  22   1.0000      -0.167312        -4.5528
  23   1.0000      -0.167312        -4.5528
  24   0.0000      -0.002935        -0.0799
  25   0.0000      -0.002935        -0.0799
  26   0.0000      -0.002935        -0.0799
  27   0.0000       0.004844         0.1318
  28   0.0000       0.067730         1.8430

                 SPIN DOWN ORBITALS
  NO   OCC          E(Eh)            E(eV)
   0   1.0000    -746.458823    -20312.1772
   1   1.0000    -103.601843     -2819.1495
   2   1.0000     -92.851299     -2526.6123
   3   1.0000     -92.851299     -2526.6123
   4   1.0000     -92.851299     -2526.6123
   5   1.0000     -17.544989      -477.4234
   6   1.0000     -13.991864      -380.7380
   7   1.0000     -13.991864      -380.7380
   8   1.0000     -13.991864      -380.7380
   9   1.0000      -8.127315      -221.1555
  10   1.0000      -8.127315      -221.1555
  11   1.0000      -8.127315      -221.1555
  12   1.0000      -8.127315      -221.1555
  13   1.0000      -8.127315      -221.1555
  14   1.0000      -2.286789       -62.2267
  15   1.0000      -1.332896       -36.2700
  16   1.0000      -1.332896       -36.2700
  17   1.0000      -1.332896       -36.2700
  18   0.0000      -0.057875        -1.5749
  19   0.0000      -0.041277        -1.1232
  20   0.0000      -0.041277        -1.1232
  21   0.0000      -0.041277        -1.1232
  22   0.0000      -0.041277        -1.1232

MULLIKEN ATOMIC CHARGES AND SPIN POPULATIONS
--------------------------------------------
   0 Mo:   -0.000000    6.000000
Sum of atomic charges         :   -0.0000000

LOEWDIN ATOMIC CHARGES AND SPIN POPULATIONS
-------------------------------------------
   0 Mo:   -0.000000    6.000000

FINAL SINGLE POINT ENERGY     -4097.647058453536

DIPOLE MOMENT
-------------
                                X             Y             Z
Electronic contribution:      0.00000       0.00000       0.00000
Nuclear contribution   :      0.00000       0.00000       0.00000
                        -----------------------------------------
Total Dipole Moment    :      0.00000       0.00000       0.00000
                        -----------------------------------------
Magnitude (a.u.)       :      0.00000
Magnitude (Debye)      :      0.00000

Rotational constants in cm-1:     0.000000     0.000000     0.000000
Rotational constants in MHz :     0.000000     0.000000     0.000000

                             ****ORCA TERMINATED NORMALLY****
TOTAL RUN TIME: 0 days 0 hours 16 minutes 19 seconds 560 msec
