                         Program Version 5.0.1 -  RELEASE  -
|  1> !uks pbe nori verytightscf soscf notrah defgrid3
|  2>
|  3> %pal
|  4>   nprocs 32
|  5> end
|  6> %coords
|  7>   charge 0
|  8>   mult 7
|  9>   units bohrs
| 10>   coords
| 11>     Mo 0.0 0.0 0.0
| 12>   end
| 13> end
| 14> %basis
| 15>   gtoname "Mo_sapporo-qzp-2012-diffuse.basis"
| 16>   delECP Mo
| 17> end
| 18> %rel
| 19>   method zora
| 20>   modelpot 1, 0, 0, 0
| 21>   c 137.035999084
| 22> endd                         ****END OF INPUT****

CARTESIAN COORDINATES (ANGSTROEM)
---------------------------------
  Mo     0.000000    0.000000    0.000000

 Total Charge           Charge          ....    0
 Multiplicity           Mult            ....    7
 Number of Electrons    NEL             ....   42
 Basis Dimension        Dim             ....  150

ORBITAL ENERGIES
----------------
                 SPIN UP ORBITALS
  NO   OCC          E(Eh)            E(eV)
   0   1.0000    -746.364785    -20309.6183
   1   1.0000    -103.339794     -2812.0188
   2   1.0000     -93.061539     -2532.3332
   3   1.0000     -93.061539     -2532.3332
   4   1.0000     -93.061539     -2532.3332
   5   1.0000     -17.446468      -474.7425
   6   1.0000     -13.996271      -380.8579
   7   1.0000     -13.996271      -380.8579
   8   1.0000     -13.996271      -380.8579
   9   1.0000      -8.127299      -221.1550
  10   1.0000      -8.127299      -221.1550
  11   1.0000      -8.127299      -221.1550
  12   1.0000      -8.127299      -221.1550
  13   1.0000      -8.127299      -221.1550
  14   1.0000      -2.373392       -64.5833
  15   1.0000      -1.445611       -39.3371
  16   1.0000      -1.445611       -39.3371
  17   1.0000      -1.445611       -39.3371
  18   1.0000      -0.168801        -4.5933
  19   1.0000      -0.168439        -4.5835
  20   1.0000      -0.168439        -4.5835
  21   1.0000      -0.168439        -4.5835
  22   1.0000      -0.168439        -4.5835
  23   1.0000      -0.168439        -4.5835
  24   0.0000      -0.047910        -1.3037
  25   0.0000      -0.047910        -1.3037
  26   0.0000      -0.047910        -1.3037
  27   0.0000      -0.000009        -0.0002
  28   0.0000       0.031203         0.8491

                 SPIN DOWN ORBITALS
  NO   OCC          E(Eh)            E(eV)
   0   1.0000    -746.364774    -20309.6180
   1   1.0000    -103.322972     -2811.5610
   2   1.0000     -93.049416     -2532.0033
   3   1.0000     -93.049416     -2532.0033
   4   1.0000     -93.049416     -2532.0033
   5   1.0000     -17.436740      -474.4778
   6   1.0000     -13.985333      -380.5603
   7   1.0000     -13.985333      -380.5603
   8   1.0000     -13.985333      -380.5603
   9   1.0000      -8.111137      -220.7153
  10   1.0000      -8.111137      -220.7153
  11   1.0000      -8.111137      -220.7153
  12   1.0000      -8.111137      -220.7153
  13   1.0000      -8.111137      -220.7153
  14   1.0000      -2.274932       -61.9041
  15   1.0000      -1.335499       -36.3408
  16   1.0000      -1.335499       -36.3408
  17   1.0000      -1.335499       -36.3408
  18   0.0000      -0.061959        -1.6860
  19   0.0000      -0.043549        -1.1850
  20   0.0000      -0.043549        -1.1850
  21   0.0000      -0.043549        -1.1850
  22   0.0000      -0.043549        -1.1850

MULLIKEN ATOMIC CHARGES AND SPIN POPULATIONS
--------------------------------------------
   0 Mo:    0.000000    6.000000
Sum of atomic charges         :    0.0000000

LOEWDIN ATOMIC CHARGES AND SPIN POPULATIONS
-------------------------------------------
   0 Mo:   -0.000000    6.000000

FINAL SINGLE POINT ENERGY     -4090.557941145332

DIPOLE MOMENT
-------------
                                X             Y             Z
Electronic contribution:     -0.00000       0.00000       0.00000
Nuclear contribution   :      0.00000       0.00000       0.00000
                        -----------------------------------------
Total Dipole Moment    :     -0.00000       0.00000       0.00000
                        -----------------------------------------
Magnitude (a.u.)       :      0.00000
Magnitude (Debye)      :      0.00000

Rotational constants in cm-1:     0.000000     0.000000     0.000000
Rotational constants in MHz :     0.000000     0.000000     0.000000

                             ****ORCA TERMINATED NORMALLY****
TOTAL RUN TIME: 0 days 0 hours 0 minutes 50 seconds 653 msec
