                         Program Version 5.0.1 -  RELEASE  -
|  1> !uks pbe nori verytightscf soscf notrah defgrid3
|  2>
|  3> %pal
|  4>   nprocs 32
|  5> end
|  6> %coords
|  7>   charge 0
|  8>   mult 6
|  9>   units bohrs
| 10>   coords
| 11>     Nb 0.0 0.0 0.0
| 12>   end
| 13> end
| 14> %basis
| 15>   gtoname "Nb_ano-r3.basis"
| 16>   delECP Nb
| 17> end
| 18> %rel
| 19>   method zora
| 20>   modelpot 1, 0, 0, 0
| 21>   c 137.035999084
| 22> endd                         ****END OF INPUT****

CARTESIAN COORDINATES (ANGSTROEM)
---------------------------------
  Nb     0.000000    0.000000    0.000000

 Total Charge           Charge          ....    0
 Multiplicity           Mult            ....    6
 Number of Electrons    NEL             ....   41
 Basis Dimension        Dim             ....  106

ORBITAL ENERGIES
----------------
                 SPIN UP ORBITALS
  NO   OCC          E(Eh)            E(eV)
   0   1.0000    -707.454614    -19250.8187
   1   1.0000     -97.335655     -2648.6378
   2   1.0000     -87.119957     -2370.6545
   3   1.0000     -87.116256     -2370.5538
   4   1.0000     -87.116256     -2370.5538
   5   1.0000     -16.166597      -439.9155
   6   1.0000     -12.807328      -348.5051
   7   1.0000     -12.797773      -348.2451
   8   1.0000     -12.797772      -348.2451
   9   1.0000      -7.231904      -196.7901
  10   1.0000      -7.230178      -196.7432
  11   1.0000      -7.230178      -196.7432
  12   1.0000      -7.223487      -196.5611
  13   1.0000      -7.223487      -196.5611
  14   1.0000      -2.159435       -58.7612
  15   1.0000      -1.296947       -35.2917
  16   1.0000      -1.285053       -34.9681
  17   1.0000      -1.285053       -34.9681
  18   1.0000      -0.163617        -4.4522
  19   1.0000      -0.144052        -3.9198
  20   1.0000      -0.144052        -3.9198
  21   1.0000      -0.129032        -3.5111
  22   1.0000      -0.129032        -3.5111
  23   0.0000      -0.126051        -3.4300
  24   0.0000      -0.004412        -0.1201
  25   0.0000      -0.000478        -0.0130
  26   0.0000      -0.000478        -0.0130
  27   0.0000       0.035773         0.9734

                 SPIN DOWN ORBITALS
  NO   OCC          E(Eh)            E(eV)
   0   1.0000    -707.454573    -19250.8176
   1   1.0000     -97.324753     -2648.3412
   2   1.0000     -87.113204     -2370.4708
   3   1.0000     -87.107549     -2370.3169
   4   1.0000     -87.107549     -2370.3169
   5   1.0000     -16.160116      -439.7391
   6   1.0000     -12.801513      -348.3469
   7   1.0000     -12.789937      -348.0319
   8   1.0000     -12.789936      -348.0319
   9   1.0000      -7.225963      -196.6284
  10   1.0000      -7.217938      -196.4101
  11   1.0000      -7.217938      -196.4101
  12   1.0000      -7.211944      -196.2470
  13   1.0000      -7.211944      -196.2470
  14   1.0000      -2.089405       -56.8556
  15   1.0000      -1.230314       -33.4785
  16   1.0000      -1.197383       -32.5824
  17   1.0000      -1.197383       -32.5824
  18   0.0000      -0.068554        -1.8655
  19   0.0000      -0.052990        -1.4419
  20   0.0000      -0.033822        -0.9204
  21   0.0000      -0.033822        -0.9204
  22   0.0000      -0.023375        -0.6361

MULLIKEN ATOMIC CHARGES AND SPIN POPULATIONS
--------------------------------------------
   0 Nb:   -0.000000    5.000000
Sum of atomic charges         :   -0.0000000

LOEWDIN ATOMIC CHARGES AND SPIN POPULATIONS
-------------------------------------------
   0 Nb:    0.000000    5.000000

FINAL SINGLE POINT ENERGY     -3863.863589405232

DIPOLE MOMENT
-------------
                                X             Y             Z
Electronic contribution:     -0.00000      -0.00000       0.00000
Nuclear contribution   :      0.00000       0.00000       0.00000
                        -----------------------------------------
Total Dipole Moment    :     -0.00000      -0.00000       0.00000
                        -----------------------------------------
Magnitude (a.u.)       :      0.00000
Magnitude (Debye)      :      0.00000

Rotational constants in cm-1:     0.000000     0.000000     0.000000
Rotational constants in MHz :     0.000000     0.000000     0.000000

                             ****ORCA TERMINATED NORMALLY****
TOTAL RUN TIME: 0 days 1 hours 15 minutes 31 seconds 343 msec
