                         Program Version 5.0.1 -  RELEASE  -
|  1> !uks pbe nori verytightscf soscf notrah defgrid3
|  2>
|  3> %pal
|  4>   nprocs 32
|  5> end
|  6> %coords
|  7>   charge 0
|  8>   mult 6
|  9>   units bohrs
| 10>   coords
| 11>     Nb 0.0 0.0 0.0
| 12>   end
| 13> end
| 14> %basis
| 15>   gtoname "Nb_ano-rcc-vqzp.basis"
| 16>   delECP Nb
| 17> end
| 18> %rel
| 19>   method zora
| 20>   modelpot 1, 0, 0, 0
| 21>   c 137.035999084
| 22> endd                         ****END OF INPUT****

CARTESIAN COORDINATES (ANGSTROEM)
---------------------------------
  Nb     0.000000    0.000000    0.000000

 Total Charge           Charge          ....    0
 Multiplicity           Mult            ....    6
 Number of Electrons    NEL             ....   41
 Basis Dimension        Dim             ....  104

ORBITAL ENERGIES
----------------
                 SPIN UP ORBITALS
  NO   OCC          E(Eh)            E(eV)
   0   1.0000    -706.050483    -19212.6104
   1   1.0000     -97.209196     -2645.1967
   2   1.0000     -87.138385     -2371.1560
   3   1.0000     -87.134760     -2371.0574
   4   1.0000     -87.134760     -2371.0574
   5   1.0000     -16.149399      -439.4475
   6   1.0000     -12.815277      -348.7214
   7   1.0000     -12.805817      -348.4640
   8   1.0000     -12.805817      -348.4640
   9   1.0000      -7.240830      -197.0330
  10   1.0000      -7.239083      -196.9855
  11   1.0000      -7.239083      -196.9855
  12   1.0000      -7.232471      -196.8055
  13   1.0000      -7.232471      -196.8055
  14   1.0000      -2.156597       -58.6840
  15   1.0000      -1.297877       -35.3170
  16   1.0000      -1.285974       -34.9931
  17   1.0000      -1.285974       -34.9931
  18   1.0000      -0.163394        -4.4462
  19   1.0000      -0.144295        -3.9265
  20   1.0000      -0.144295        -3.9265
  21   1.0000      -0.129256        -3.5172
  22   1.0000      -0.129256        -3.5172
  23   0.0000      -0.126340        -3.4379
  24   0.0000      -0.049765        -1.3542
  25   0.0000      -0.046671        -1.2700
  26   0.0000      -0.046671        -1.2700
  27   0.0000       0.018283         0.4975

                 SPIN DOWN ORBITALS
  NO   OCC          E(Eh)            E(eV)
   0   1.0000    -706.050442    -19212.6093
   1   1.0000     -97.198594     -2644.9082
   2   1.0000     -87.131827     -2370.9776
   3   1.0000     -87.126300     -2370.8272
   4   1.0000     -87.126300     -2370.8272
   5   1.0000     -16.143045      -439.2746
   6   1.0000     -12.809590      -348.5667
   7   1.0000     -12.798113      -348.2544
   8   1.0000     -12.798113      -348.2544
   9   1.0000      -7.235062      -196.8760
  10   1.0000      -7.227117      -196.6599
  11   1.0000      -7.227117      -196.6599
  12   1.0000      -7.221172      -196.4981
  13   1.0000      -7.221172      -196.4981
  14   1.0000      -2.086486       -56.7762
  15   1.0000      -1.231066       -33.4990
  16   1.0000      -1.198093       -32.6018
  17   1.0000      -1.198093       -32.6018
  18   0.0000      -0.070606        -1.9213
  19   0.0000      -0.054200        -1.4749
  20   0.0000      -0.034144        -0.9291
  21   0.0000      -0.034144        -0.9291
  22   0.0000      -0.023736        -0.6459

MULLIKEN ATOMIC CHARGES AND SPIN POPULATIONS
--------------------------------------------
   0 Nb:    0.000000    5.000000
Sum of atomic charges         :    0.0000000

LOEWDIN ATOMIC CHARGES AND SPIN POPULATIONS
-------------------------------------------
   0 Nb:   -0.000000    5.000000

FINAL SINGLE POINT ENERGY     -3860.689005048041

DIPOLE MOMENT
-------------
                                X             Y             Z
Electronic contribution:     -0.00000      -0.00000       0.00000
Nuclear contribution   :      0.00000       0.00000       0.00000
                        -----------------------------------------
Total Dipole Moment    :     -0.00000      -0.00000       0.00000
                        -----------------------------------------
Magnitude (a.u.)       :      0.00000
Magnitude (Debye)      :      0.00000

Rotational constants in cm-1:     0.000000     0.000000     0.000000
Rotational constants in MHz :     0.000000     0.000000     0.000000

                             ****ORCA TERMINATED NORMALLY****
TOTAL RUN TIME: 0 days 1 hours 3 minutes 38 seconds 826 msec
