                         Program Version 5.0.1 -  RELEASE  -
|  1> !uks pbe nori verytightscf soscf notrah defgrid3
|  2>
|  3> %pal
|  4>   nprocs 32
|  5> end
|  6> %coords
|  7>   charge 0
|  8>   mult 6
|  9>   units bohrs
| 10>   coords
| 11>     Nb 0.0 0.0 0.0
| 12>   end
| 13> end
| 14> %basis
| 15>   gtoname "Nb_sarc-zora-tzvpp.basis"
| 16>   delECP Nb
| 17> end
| 18> %rel
| 19>   method zora
| 20>   modelpot 1, 0, 0, 0
| 21>   c 137.035999084
| 22> endd                         ****END OF INPUT****

CARTESIAN COORDINATES (ANGSTROEM)
---------------------------------
  Nb     0.000000    0.000000    0.000000

 Total Charge           Charge          ....    0
 Multiplicity           Mult            ....    6
 Number of Electrons    NEL             ....   41
 Basis Dimension        Dim             ....   98

ORBITAL ENERGIES
----------------
                 SPIN UP ORBITALS
  NO   OCC          E(Eh)            E(eV)
   0   1.0000    -709.755542    -19313.4302
   1   1.0000     -97.550564     -2654.4858
   2   1.0000     -87.022415     -2368.0003
   3   1.0000     -87.018709     -2367.8995
   4   1.0000     -87.018709     -2367.8994
   5   1.0000     -16.210877      -441.1204
   6   1.0000     -12.796786      -348.2183
   7   1.0000     -12.787207      -347.9576
   8   1.0000     -12.787207      -347.9576
   9   1.0000      -7.220183      -196.4712
  10   1.0000      -7.218410      -196.4229
  11   1.0000      -7.218410      -196.4229
  12   1.0000      -7.211708      -196.2405
  13   1.0000      -7.211708      -196.2405
  14   1.0000      -2.168524       -59.0085
  15   1.0000      -1.297394       -35.3039
  16   1.0000      -1.285192       -34.9718
  17   1.0000      -1.285191       -34.9718
  18   1.0000      -0.164476        -4.4756
  19   1.0000      -0.143303        -3.8995
  20   1.0000      -0.143302        -3.8994
  21   1.0000      -0.128491        -3.4964
  22   1.0000      -0.128491        -3.4964
  23   0.0000      -0.126277        -3.4362
  24   0.0000      -0.049699        -1.3524
  25   0.0000      -0.046527        -1.2661
  26   0.0000      -0.046527        -1.2661
  27   0.0000       0.063494         1.7278

                 SPIN DOWN ORBITALS
  NO   OCC          E(Eh)            E(eV)
   0   1.0000    -709.755504    -19313.4292
   1   1.0000     -97.539796     -2654.1928
   2   1.0000     -87.015750     -2367.8189
   3   1.0000     -87.010128     -2367.6660
   4   1.0000     -87.010128     -2367.6660
   5   1.0000     -16.204239      -440.9398
   6   1.0000     -12.790818      -348.0559
   7   1.0000     -12.779171      -347.7389
   8   1.0000     -12.779170      -347.7389
   9   1.0000      -7.214110      -196.3059
  10   1.0000      -7.206081      -196.0874
  11   1.0000      -7.206081      -196.0874
  12   1.0000      -7.200034      -195.9229
  13   1.0000      -7.200034      -195.9229
  14   1.0000      -2.099051       -57.1181
  15   1.0000      -1.230760       -33.4907
  16   1.0000      -1.197758       -32.5927
  17   1.0000      -1.197756       -32.5926
  18   0.0000      -0.071567        -1.9474
  19   0.0000      -0.053673        -1.4605
  20   0.0000      -0.034272        -0.9326
  21   0.0000      -0.034272        -0.9326
  22   0.0000      -0.023410        -0.6370

MULLIKEN ATOMIC CHARGES AND SPIN POPULATIONS
--------------------------------------------
   0 Nb:   -0.000000    5.000000
Sum of atomic charges         :   -0.0000000

LOEWDIN ATOMIC CHARGES AND SPIN POPULATIONS
-------------------------------------------
   0 Nb:   -0.000000    5.000000

FINAL SINGLE POINT ENERGY     -3869.552729805369

DIPOLE MOMENT
-------------
                                X             Y             Z
Electronic contribution:     -0.00000      -0.00000       0.00000
Nuclear contribution   :      0.00000       0.00000       0.00000
                        -----------------------------------------
Total Dipole Moment    :     -0.00000      -0.00000       0.00000
                        -----------------------------------------
Magnitude (a.u.)       :      0.00000
Magnitude (Debye)      :      0.00000

Rotational constants in cm-1:     0.000000     0.000000     0.000000
Rotational constants in MHz :     0.000000     0.000000     0.000000

                             ****ORCA TERMINATED NORMALLY****
TOTAL RUN TIME: 0 days 0 hours 0 minutes 43 seconds 44 msec
