                         Program Version 5.0.1 -  RELEASE  -
|  1> !uks pbe nori verytightscf soscf notrah defgrid3
|  2>
|  3> %pal
|  4>   nprocs 32
|  5> end
|  6> %coords
|  7>   charge 0
|  8>   mult 6
|  9>   units bohrs
| 10>   coords
| 11>     Nb 0.0 0.0 0.0
| 12>   end
| 13> end
| 14> %basis
| 15>   gtoname "Nb_ugbs.basis"
| 16>   delECP Nb
| 17> end
| 18> %rel
| 19>   method zora
| 20>   modelpot 1, 0, 0, 0
| 21>   c 137.035999084
| 22> endd                         ****END OF INPUT****

CARTESIAN COORDINATES (ANGSTROEM)
---------------------------------
  Nb     0.000000    0.000000    0.000000

 Total Charge           Charge          ....    0
 Multiplicity           Mult            ....    6
 Number of Electrons    NEL             ....   41
 Basis Dimension        Dim             ....  190

ORBITAL ENERGIES
----------------
                 SPIN UP ORBITALS
  NO   OCC          E(Eh)            E(eV)
   0   1.0000    -709.708928    -19312.1617
   1   1.0000     -97.490645     -2652.8553
   2   1.0000     -86.954779     -2366.1598
   3   1.0000     -86.954779     -2366.1598
   4   1.0000     -86.950867     -2366.0534
   5   1.0000     -16.198669      -440.7882
   6   1.0000     -12.783393      -347.8538
   7   1.0000     -12.783392      -347.8538
   8   1.0000     -12.772265      -347.5510
   9   1.0000      -7.211188      -196.2264
  10   1.0000      -7.210759      -196.2147
  11   1.0000      -7.203466      -196.0163
  12   1.0000      -7.203466      -196.0163
  13   1.0000      -7.200874      -195.9457
  14   1.0000      -2.167729       -58.9869
  15   1.0000      -1.294902       -35.2361
  16   1.0000      -1.294902       -35.2361
  17   1.0000      -1.276706       -34.7409
  18   1.0000      -0.165098        -4.4925
  19   1.0000      -0.150535        -4.0963
  20   1.0000      -0.133298        -3.6272
  21   1.0000      -0.133298        -3.6272
  22   1.0000      -0.126251        -3.4355
  23   0.0000      -0.131058        -3.5663
  24   0.0000      -0.036480        -0.9927
  25   0.0000      -0.036480        -0.9927
  26   0.0000      -0.031280        -0.8512
  27   0.0000       0.005484         0.1492

                 SPIN DOWN ORBITALS
  NO   OCC          E(Eh)            E(eV)
   0   1.0000    -709.708877    -19312.1603
   1   1.0000     -97.479076     -2652.5405
   2   1.0000     -86.946904     -2365.9455
   3   1.0000     -86.946904     -2365.9455
   4   1.0000     -86.940930     -2365.7830
   5   1.0000     -16.192166      -440.6112
   6   1.0000     -12.776817      -347.6749
   7   1.0000     -12.776817      -347.6749
   8   1.0000     -12.763743      -347.3191
   9   1.0000      -7.204425      -196.0424
  10   1.0000      -7.198402      -195.8785
  11   1.0000      -7.191381      -195.6874
  12   1.0000      -7.191381      -195.6874
  13   1.0000      -7.189042      -195.6238
  14   1.0000      -2.097987       -57.0891
  15   1.0000      -1.219949       -33.1965
  16   1.0000      -1.219949       -33.1965
  17   1.0000      -1.184179       -32.2231
  18   0.0000      -0.069750        -1.8980
  19   0.0000      -0.059216        -1.6113
  20   0.0000      -0.040651        -1.1062
  21   0.0000      -0.027207        -0.7403
  22   0.0000      -0.027207        -0.7403

MULLIKEN ATOMIC CHARGES AND SPIN POPULATIONS
--------------------------------------------
   0 Nb:    0.000000    5.000000
Sum of atomic charges         :    0.0000000

LOEWDIN ATOMIC CHARGES AND SPIN POPULATIONS
-------------------------------------------
   0 Nb:    0.000000    5.000000

FINAL SINGLE POINT ENERGY     -3869.739508814506

DIPOLE MOMENT
-------------
                                X             Y             Z
Electronic contribution:      0.00000      -0.00000       0.00000
Nuclear contribution   :      0.00000       0.00000       0.00000
                        -----------------------------------------
Total Dipole Moment    :      0.00000      -0.00000       0.00000
                        -----------------------------------------
Magnitude (a.u.)       :      0.00000
Magnitude (Debye)      :      0.00000

Rotational constants in cm-1:     0.000000     0.000000     0.000000
Rotational constants in MHz :     0.000000     0.000000     0.000000

                             ****ORCA TERMINATED NORMALLY****
TOTAL RUN TIME: 0 days 0 hours 0 minutes 36 seconds 169 msec
