                         Program Version 5.0.1 -  RELEASE  -
|  1> !uks pbe nori verytightscf soscf notrah defgrid3
|  2>
|  3> %pal
|  4>   nprocs 32
|  5> end
|  6> %coords
|  7>   charge 0
|  8>   mult 1
|  9>   units bohrs
| 10>   coords
| 11>     Pd 0.0 0.0 0.0
| 12>   end
| 13> end
| 14> %basis
| 15>   gtoname "Pd_ano-rcc-vqzp.basis"
| 16>   delECP Pd
| 17> end
| 18> %rel
| 19>   method zora
| 20>   modelpot 1, 0, 0, 0
| 21>   c 137.035999084
| 22> endd                         ****END OF INPUT****

CARTESIAN COORDINATES (ANGSTROEM)
---------------------------------
  Pd     0.000000    0.000000    0.000000

 Total Charge           Charge          ....    0
 Multiplicity           Mult            ....    1
 Number of Electrons    NEL             ....   46
 Basis Dimension        Dim             ....  104

ORBITAL ENERGIES
----------------
                 SPIN UP ORBITALS
  NO   OCC          E(Eh)            E(eV)
   0   1.0000    -912.290587    -24824.6889
   1   1.0000    -130.475102     -3550.4080
   2   1.0000    -117.524541     -3198.0053
   3   1.0000    -117.524541     -3198.0053
   4   1.0000    -117.524541     -3198.0053
   5   1.0000     -23.415679      -637.1730
   6   1.0000     -19.088100      -519.4136
   7   1.0000     -19.088100      -519.4136
   8   1.0000     -19.088100      -519.4136
   9   1.0000     -12.017823      -327.0216
  10   1.0000     -12.017823      -327.0216
  11   1.0000     -12.017823      -327.0216
  12   1.0000     -12.017823      -327.0216
  13   1.0000     -12.017823      -327.0216
  14   1.0000      -3.130269       -85.1790
  15   1.0000      -1.889823       -51.4247
  16   1.0000      -1.889823       -51.4247
  17   1.0000      -1.889823       -51.4247
  18   1.0000      -0.145259        -3.9527
  19   1.0000      -0.145259        -3.9527
  20   1.0000      -0.145259        -3.9527
  21   1.0000      -0.145259        -3.9527
  22   1.0000      -0.145259        -3.9527
  23   0.0000      -0.119612        -3.2548
  24   0.0000       0.017738         0.4827
  25   0.0000       0.017738         0.4827
  26   0.0000       0.017738         0.4827
  27   0.0000       0.029275         0.7966

                 SPIN DOWN ORBITALS
  NO   OCC          E(Eh)            E(eV)
   0   1.0000    -912.290587    -24824.6889
   1   1.0000    -130.475102     -3550.4080
   2   1.0000    -117.524541     -3198.0053
   3   1.0000    -117.524541     -3198.0053
   4   1.0000    -117.524541     -3198.0053
   5   1.0000     -23.415679      -637.1730
   6   1.0000     -19.088100      -519.4136
   7   1.0000     -19.088100      -519.4136
   8   1.0000     -19.088100      -519.4136
   9   1.0000     -12.017823      -327.0216
  10   1.0000     -12.017823      -327.0216
  11   1.0000     -12.017823      -327.0216
  12   1.0000     -12.017823      -327.0216
  13   1.0000     -12.017823      -327.0216
  14   1.0000      -3.130269       -85.1790
  15   1.0000      -1.889823       -51.4247
  16   1.0000      -1.889823       -51.4247
  17   1.0000      -1.889823       -51.4247
  18   1.0000      -0.145259        -3.9527
  19   1.0000      -0.145259        -3.9527
  20   1.0000      -0.145259        -3.9527
  21   1.0000      -0.145259        -3.9527
  22   1.0000      -0.145259        -3.9527
  23   0.0000      -0.119612        -3.2548
  24   0.0000       0.017738         0.4827
  25   0.0000       0.017738         0.4827
  26   0.0000       0.017738         0.4827
  27   0.0000       0.029275         0.7966

MULLIKEN ATOMIC CHARGES AND SPIN POPULATIONS
--------------------------------------------
   0 Pd:    0.000000    0.000000
Sum of atomic charges         :    0.0000000

LOEWDIN ATOMIC CHARGES AND SPIN POPULATIONS
-------------------------------------------
   0 Pd:    0.000000    0.000000

FINAL SINGLE POINT ENERGY     -5112.908410499789

DIPOLE MOMENT
-------------
                                X             Y             Z
Electronic contribution:      0.00000      -0.00000      -0.00000
Nuclear contribution   :      0.00000       0.00000       0.00000
                        -----------------------------------------
Total Dipole Moment    :      0.00000      -0.00000      -0.00000
                        -----------------------------------------
Magnitude (a.u.)       :      0.00000
Magnitude (Debye)      :      0.00000

Rotational constants in cm-1:     0.000000     0.000000     0.000000
Rotational constants in MHz :     0.000000     0.000000     0.000000

                             ****ORCA TERMINATED NORMALLY****
TOTAL RUN TIME: 0 days 0 hours 18 minutes 15 seconds 347 msec
