                         Program Version 5.0.1 -  RELEASE  -
|  1> !uks pbe nori verytightscf soscf notrah defgrid3
|  2>
|  3> %pal
|  4>   nprocs 32
|  5> end
|  6> %coords
|  7>   charge 0
|  8>   mult 1
|  9>   units bohrs
| 10>   coords
| 11>     Pd 0.0 0.0 0.0
| 12>   end
| 13> end
| 14> %basis
| 15>   gtoname "Pd_ano-r3.basis"
| 16>   delECP Pd
| 17> end
| 18> %rel
| 19>   method zora
| 20>   modelpot 1, 0, 0, 0
| 21>   c 137.035999084
| 22> endd                         ****END OF INPUT****

CARTESIAN COORDINATES (ANGSTROEM)
---------------------------------
  Pd     0.000000    0.000000    0.000000

 Total Charge           Charge          ....    0
 Multiplicity           Mult            ....    1
 Number of Electrons    NEL             ....   46
 Basis Dimension        Dim             ....  101

ORBITAL ENERGIES
----------------
                 SPIN UP ORBITALS
  NO   OCC          E(Eh)            E(eV)
   0   1.0000    -914.521296    -24885.3896
   1   1.0000    -130.700407     -3556.5389
   2   1.0000    -117.519033     -3197.8555
   3   1.0000    -117.519033     -3197.8555
   4   1.0000    -117.519033     -3197.8555
   5   1.0000     -23.450383      -638.1174
   6   1.0000     -19.080090      -519.1956
   7   1.0000     -19.080090      -519.1956
   8   1.0000     -19.080090      -519.1956
   9   1.0000     -12.009100      -326.7842
  10   1.0000     -12.009100      -326.7842
  11   1.0000     -12.009100      -326.7842
  12   1.0000     -12.009100      -326.7842
  13   1.0000     -12.009100      -326.7842
  14   1.0000      -3.132062       -85.2277
  15   1.0000      -1.883651       -51.2568
  16   1.0000      -1.883651       -51.2568
  17   1.0000      -1.883651       -51.2568
  18   1.0000      -0.139918        -3.8074
  19   1.0000      -0.139918        -3.8074
  20   1.0000      -0.139918        -3.8074
  21   1.0000      -0.139918        -3.8074
  22   1.0000      -0.139918        -3.8074
  23   0.0000      -0.113706        -3.0941
  24   0.0000       0.130326         3.5463
  25   0.0000       0.130326         3.5463
  26   0.0000       0.130326         3.5463
  27   0.0000       0.305706         8.3187

                 SPIN DOWN ORBITALS
  NO   OCC          E(Eh)            E(eV)
   0   1.0000    -914.521296    -24885.3896
   1   1.0000    -130.700407     -3556.5389
   2   1.0000    -117.519033     -3197.8555
   3   1.0000    -117.519033     -3197.8555
   4   1.0000    -117.519033     -3197.8555
   5   1.0000     -23.450383      -638.1174
   6   1.0000     -19.080090      -519.1956
   7   1.0000     -19.080090      -519.1956
   8   1.0000     -19.080090      -519.1956
   9   1.0000     -12.009100      -326.7842
  10   1.0000     -12.009100      -326.7842
  11   1.0000     -12.009100      -326.7842
  12   1.0000     -12.009100      -326.7842
  13   1.0000     -12.009100      -326.7842
  14   1.0000      -3.132062       -85.2277
  15   1.0000      -1.883651       -51.2568
  16   1.0000      -1.883651       -51.2568
  17   1.0000      -1.883651       -51.2568
  18   1.0000      -0.139918        -3.8074
  19   1.0000      -0.139918        -3.8074
  20   1.0000      -0.139918        -3.8074
  21   1.0000      -0.139918        -3.8074
  22   1.0000      -0.139918        -3.8074
  23   0.0000      -0.113706        -3.0941
  24   0.0000       0.130326         3.5463
  25   0.0000       0.130326         3.5463
  26   0.0000       0.130326         3.5463
  27   0.0000       0.305706         8.3187

MULLIKEN ATOMIC CHARGES AND SPIN POPULATIONS
--------------------------------------------
   0 Pd:   -0.000000    0.000000
Sum of atomic charges         :   -0.0000000

LOEWDIN ATOMIC CHARGES AND SPIN POPULATIONS
-------------------------------------------
   0 Pd:    0.000000    0.000000

FINAL SINGLE POINT ENERGY     -5117.920492136894

DIPOLE MOMENT
-------------
                                X             Y             Z
Electronic contribution:      0.00000      -0.00000       0.00000
Nuclear contribution   :      0.00000       0.00000       0.00000
                        -----------------------------------------
Total Dipole Moment    :      0.00000      -0.00000       0.00000
                        -----------------------------------------
Magnitude (a.u.)       :      0.00000
Magnitude (Debye)      :      0.00000

Rotational constants in cm-1:     0.000000     0.000000     0.000000
Rotational constants in MHz :     0.000000     0.000000     0.000000

                             ****ORCA TERMINATED NORMALLY****
TOTAL RUN TIME: 0 days 0 hours 16 minutes 7 seconds 958 msec
