                         Program Version 5.0.1 -  RELEASE  -
|  1> !uks pbe nori verytightscf soscf notrah defgrid3
|  2>
|  3> %pal
|  4>   nprocs 32
|  5> end
|  6> %coords
|  7>   charge 0
|  8>   mult 2
|  9>   units bohrs
| 10>   coords
| 11>     Rb 0.0 0.0 0.0
| 12>   end
| 13> end
| 14> %basis
| 15>   gtoname "Rb_ano-r3.basis"
| 16>   delECP Rb
| 17> end
| 18> %rel
| 19>   method zora
| 20>   modelpot 1, 0, 0, 0
| 21>   c 137.035999084
| 22> endd                         ****END OF INPUT****

CARTESIAN COORDINATES (ANGSTROEM)
---------------------------------
  Rb     0.000000    0.000000    0.000000

 Total Charge           Charge          ....    0
 Multiplicity           Mult            ....    2
 Number of Electrons    NEL             ....   37
 Basis Dimension        Dim             ....   68

ORBITAL ENERGIES
----------------
                 SPIN UP ORBITALS
  NO   OCC          E(Eh)            E(eV)
   0   1.0000    -563.152168    -15324.1496
   1   1.0000     -74.286692     -2021.4437
   2   1.0000     -65.989827     -1795.6745
   3   1.0000     -65.989827     -1795.6745
   4   1.0000     -65.989827     -1795.6745
   5   1.0000     -11.000034      -299.3262
   6   1.0000      -8.321054      -226.4274
   7   1.0000      -8.321054      -226.4274
   8   1.0000      -8.321054      -226.4274
   9   1.0000      -3.850165      -104.7683
  10   1.0000      -3.850165      -104.7683
  11   1.0000      -3.850165      -104.7683
  12   1.0000      -3.850165      -104.7683
  13   1.0000      -3.850165      -104.7683
  14   1.0000      -1.178852       -32.0782
  15   1.0000      -0.594688       -16.1823
  16   1.0000      -0.594688       -16.1823
  17   1.0000      -0.594688       -16.1823
  18   1.0000      -0.091329        -2.4852
  19   0.0000       0.003441         0.0936
  20   0.0000       0.003441         0.0936
  21   0.0000       0.003441         0.0936
  22   0.0000       0.054105         1.4723
  23   0.0000       0.054105         1.4723

                 SPIN DOWN ORBITALS
  NO   OCC          E(Eh)            E(eV)
   0   1.0000    -563.151972    -15324.1442
   1   1.0000     -74.286545     -2021.4397
   2   1.0000     -65.989695     -1795.6709
   3   1.0000     -65.989695     -1795.6709
   4   1.0000     -65.989695     -1795.6709
   5   1.0000     -10.999770      -299.3189
   6   1.0000      -8.320771      -226.4197
   7   1.0000      -8.320771      -226.4197
   8   1.0000      -8.320771      -226.4197
   9   1.0000      -3.849836      -104.7594
  10   1.0000      -3.849836      -104.7594
  11   1.0000      -3.849836      -104.7594
  12   1.0000      -3.849836      -104.7594
  13   1.0000      -3.849836      -104.7594
  14   1.0000      -1.177134       -32.0314
  15   1.0000      -0.591496       -16.0954
  16   1.0000      -0.591496       -16.0954
  17   1.0000      -0.591496       -16.0954
  18   0.0000      -0.055987        -1.5235
  19   0.0000       0.036571         0.9952
  20   0.0000       0.036571         0.9952
  21   0.0000       0.036571         0.9952
  22   0.0000       0.067405         1.8342

MULLIKEN ATOMIC CHARGES AND SPIN POPULATIONS
--------------------------------------------
   0 Rb:   -0.000000    1.000000
Sum of atomic charges         :   -0.0000000

LOEWDIN ATOMIC CHARGES AND SPIN POPULATIONS
-------------------------------------------
   0 Rb:   -0.000000    1.000000

FINAL SINGLE POINT ENERGY     -3009.870061149313

DIPOLE MOMENT
-------------
                                X             Y             Z
Electronic contribution:      0.00000      -0.00000      -0.00000
Nuclear contribution   :      0.00000       0.00000       0.00000
                        -----------------------------------------
Total Dipole Moment    :      0.00000      -0.00000      -0.00000
                        -----------------------------------------
Magnitude (a.u.)       :      0.00000
Magnitude (Debye)      :      0.00000

Rotational constants in cm-1:     0.000000     0.000000     0.000000
Rotational constants in MHz :     0.000000     0.000000     0.000000

                             ****ORCA TERMINATED NORMALLY****
TOTAL RUN TIME: 0 days 0 hours 3 minutes 57 seconds 75 msec
