                         Program Version 5.0.1 -  RELEASE  -
|  1> !uks pbe nori verytightscf soscf notrah defgrid3
|  2>
|  3> %pal
|  4>   nprocs 32
|  5> end
|  6> %coords
|  7>   charge 0
|  8>   mult 2
|  9>   units bohrs
| 10>   coords
| 11>     Rb 0.0 0.0 0.0
| 12>   end
| 13> end
| 14> %basis
| 15>   gtoname "Rb_ano-rcc-vqzp.basis"
| 16>   delECP Rb
| 17> end
| 18> %rel
| 19>   method zora
| 20>   modelpot 1, 0, 0, 0
| 21>   c 137.035999084
| 22> endd                         ****END OF INPUT****

CARTESIAN COORDINATES (ANGSTROEM)
---------------------------------
  Rb     0.000000    0.000000    0.000000

 Total Charge           Charge          ....    0
 Multiplicity           Mult            ....    2
 Number of Electrons    NEL             ....   37
 Basis Dimension        Dim             ....   72

ORBITAL ENERGIES
----------------
                 SPIN UP ORBITALS
  NO   OCC          E(Eh)            E(eV)
   0   1.0000    -562.182440    -15297.7619
   1   1.0000     -74.183215     -2018.6279
   2   1.0000     -65.982606     -1795.4780
   3   1.0000     -65.982606     -1795.4780
   4   1.0000     -65.982606     -1795.4780
   5   1.0000     -10.977275      -298.7068
   6   1.0000      -8.314066      -226.2372
   7   1.0000      -8.314066      -226.2372
   8   1.0000      -8.314066      -226.2372
   9   1.0000      -3.842968      -104.5725
  10   1.0000      -3.842968      -104.5725
  11   1.0000      -3.842968      -104.5725
  12   1.0000      -3.842968      -104.5725
  13   1.0000      -3.842968      -104.5725
  14   1.0000      -1.170816       -31.8595
  15   1.0000      -0.588551       -16.0153
  16   1.0000      -0.588551       -16.0153
  17   1.0000      -0.588551       -16.0153
  18   1.0000      -0.089435        -2.4336
  19   0.0000      -0.032729        -0.8906
  20   0.0000      -0.032729        -0.8906
  21   0.0000      -0.032729        -0.8906
  22   0.0000       0.021053         0.5729
  23   0.0000       0.052028         1.4158

                 SPIN DOWN ORBITALS
  NO   OCC          E(Eh)            E(eV)
   0   1.0000    -562.182221    -15297.7560
   1   1.0000     -74.183052     -2018.6235
   2   1.0000     -65.982460     -1795.4740
   3   1.0000     -65.982460     -1795.4740
   4   1.0000     -65.982460     -1795.4740
   5   1.0000     -10.976983      -298.6989
   6   1.0000      -8.313755      -226.2288
   7   1.0000      -8.313755      -226.2288
   8   1.0000      -8.313755      -226.2288
   9   1.0000      -3.842609      -104.5627
  10   1.0000      -3.842609      -104.5627
  11   1.0000      -3.842609      -104.5627
  12   1.0000      -3.842609      -104.5627
  13   1.0000      -3.842609      -104.5627
  14   1.0000      -1.169053       -31.8116
  15   1.0000      -0.585262       -15.9258
  16   1.0000      -0.585262       -15.9258
  17   1.0000      -0.585262       -15.9258
  18   0.0000      -0.057218        -1.5570
  19   0.0000       0.008258         0.2247
  20   0.0000       0.008258         0.2247
  21   0.0000       0.008258         0.2247
  22   0.0000       0.055434         1.5084

MULLIKEN ATOMIC CHARGES AND SPIN POPULATIONS
--------------------------------------------
   0 Rb:    0.000000    1.000000
Sum of atomic charges         :    0.0000000

LOEWDIN ATOMIC CHARGES AND SPIN POPULATIONS
-------------------------------------------
   0 Rb:   -0.000000    1.000000

FINAL SINGLE POINT ENERGY     -3007.729511185082

DIPOLE MOMENT
-------------
                                X             Y             Z
Electronic contribution:      0.00000      -0.00000       0.00000
Nuclear contribution   :      0.00000       0.00000       0.00000
                        -----------------------------------------
Total Dipole Moment    :      0.00000      -0.00000       0.00000
                        -----------------------------------------
Magnitude (a.u.)       :      0.00000
Magnitude (Debye)      :      0.00000

Rotational constants in cm-1:     0.000000     0.000000     0.000000
Rotational constants in MHz :     0.000000     0.000000     0.000000

                             ****ORCA TERMINATED NORMALLY****
TOTAL RUN TIME: 0 days 0 hours 5 minutes 34 seconds 428 msec
