                         Program Version 5.0.1 -  RELEASE  -
|  1> !uks pbe nori verytightscf soscf notrah defgrid3
|  2>
|  3> %pal
|  4>   nprocs 32
|  5> end
|  6> %coords
|  7>   charge 0
|  8>   mult 2
|  9>   units bohrs
| 10>   coords
| 11>     Rb 0.0 0.0 0.0
| 12>   end
| 13> end
| 14> %basis
| 15>   gtoname "Rb_sapporo-qzp-2012-diffuse.basis"
| 16>   delECP Rb
| 17> end
| 18> %rel
| 19>   method zora
| 20>   modelpot 1, 0, 0, 0
| 21>   c 137.035999084
| 22> endd                         ****END OF INPUT****

CARTESIAN COORDINATES (ANGSTROEM)
---------------------------------
  Rb     0.000000    0.000000    0.000000

 Total Charge           Charge          ....    0
 Multiplicity           Mult            ....    2
 Number of Electrons    NEL             ....   37
 Basis Dimension        Dim             ....  107

ORBITAL ENERGIES
----------------
                 SPIN UP ORBITALS
  NO   OCC          E(Eh)            E(eV)
   0   1.0000    -564.047225    -15348.5053
   1   1.0000     -74.309082     -2022.0529
   2   1.0000     -66.228612     -1802.1722
   3   1.0000     -66.228612     -1802.1722
   4   1.0000     -66.228612     -1802.1722
   5   1.0000     -10.952199      -298.0245
   6   1.0000      -8.314289      -226.2433
   7   1.0000      -8.314289      -226.2433
   8   1.0000      -8.314289      -226.2433
   9   1.0000      -3.836502      -104.3965
  10   1.0000      -3.836502      -104.3965
  11   1.0000      -3.836502      -104.3965
  12   1.0000      -3.836502      -104.3965
  13   1.0000      -3.836502      -104.3965
  14   1.0000      -1.168629       -31.8000
  15   1.0000      -0.589495       -16.0410
  16   1.0000      -0.589495       -16.0410
  17   1.0000      -0.589495       -16.0410
  18   1.0000      -0.089245        -2.4285
  19   0.0000      -0.032955        -0.8967
  20   0.0000      -0.032955        -0.8967
  21   0.0000      -0.032955        -0.8967
  22   0.0000      -0.005313        -0.1446
  23   0.0000      -0.003268        -0.0889

                 SPIN DOWN ORBITALS
  NO   OCC          E(Eh)            E(eV)
   0   1.0000    -564.047059    -15348.5008
   1   1.0000     -74.308940     -2022.0491
   2   1.0000     -66.228484     -1802.1687
   3   1.0000     -66.228484     -1802.1687
   4   1.0000     -66.228484     -1802.1687
   5   1.0000     -10.951905      -298.0165
   6   1.0000      -8.313976      -226.2348
   7   1.0000      -8.313976      -226.2348
   8   1.0000      -8.313976      -226.2348
   9   1.0000      -3.836139      -104.3866
  10   1.0000      -3.836139      -104.3866
  11   1.0000      -3.836139      -104.3866
  12   1.0000      -3.836139      -104.3866
  13   1.0000      -3.836139      -104.3866
  14   1.0000      -1.166851       -31.7516
  15   1.0000      -0.586243       -15.9525
  16   1.0000      -0.586243       -15.9525
  17   1.0000      -0.586243       -15.9525
  18   0.0000      -0.058011        -1.5786
  19   0.0000       0.004110         0.1119
  20   0.0000       0.004110         0.1119
  21   0.0000       0.004111         0.1119
  22   0.0000       0.009557         0.2601

MULLIKEN ATOMIC CHARGES AND SPIN POPULATIONS
--------------------------------------------
   0 Rb:   -0.000000    1.000000
Sum of atomic charges         :   -0.0000000

LOEWDIN ATOMIC CHARGES AND SPIN POPULATIONS
-------------------------------------------
   0 Rb:   -0.000000    1.000000

FINAL SINGLE POINT ENERGY     -3007.094080238607

DIPOLE MOMENT
-------------
                                X             Y             Z
Electronic contribution:      0.00000      -0.00000      -0.00000
Nuclear contribution   :      0.00000       0.00000       0.00000
                        -----------------------------------------
Total Dipole Moment    :      0.00000      -0.00000      -0.00000
                        -----------------------------------------
Magnitude (a.u.)       :      0.00000
Magnitude (Debye)      :      0.00000

Rotational constants in cm-1:     0.000000     0.000000     0.000000
Rotational constants in MHz :     0.000000     0.000000     0.000000

                             ****ORCA TERMINATED NORMALLY****
TOTAL RUN TIME: 0 days 0 hours 0 minutes 53 seconds 445 msec
