                         Program Version 5.0.1 -  RELEASE  -
|  1> !uks pbe nori verytightscf soscf notrah defgrid3
|  2>
|  3> %pal
|  4>   nprocs 32
|  5> end
|  6> %coords
|  7>   charge 0
|  8>   mult 4
|  9>   units bohrs
| 10>   coords
| 11>     Rh 0.0 0.0 0.0
| 12>   end
| 13> end
| 14> %basis
| 15>   gtoname "Rh_ano-rcc-vqzp.basis"
| 16>   delECP Rh
| 17> end
| 18> %rel
| 19>   method zora
| 20>   modelpot 1, 0, 0, 0
| 21>   c 137.035999084
| 22> endd                         ****END OF INPUT****

CARTESIAN COORDINATES (ANGSTROEM)
---------------------------------
  Rh     0.000000    0.000000    0.000000

 Total Charge           Charge          ....    0
 Multiplicity           Mult            ....    4
 Number of Electrons    NEL             ....   45
 Basis Dimension        Dim             ....  104

ORBITAL ENERGIES
----------------
                 SPIN UP ORBITALS
  NO   OCC          E(Eh)            E(eV)
   0   1.0000    -868.688828    -23638.2247
   1   1.0000    -123.495314     -3360.4783
   2   1.0000    -111.175271     -3025.2329
   3   1.0000    -111.175271     -3025.2329
   4   1.0000    -111.175271     -3025.2329
   5   1.0000     -21.971428      -597.8730
   6   1.0000     -17.855725      -485.8790
   7   1.0000     -17.855725      -485.8790
   8   1.0000     -17.855725      -485.8790
   9   1.0000     -11.104337      -302.1644
  10   1.0000     -11.104337      -302.1644
  11   1.0000     -11.094334      -301.8922
  12   1.0000     -11.094333      -301.8922
  13   1.0000     -11.094333      -301.8922
  14   1.0000      -3.046724       -82.9056
  15   1.0000      -1.881387       -51.1951
  16   1.0000      -1.881385       -51.1951
  17   1.0000      -1.881385       -51.1951
  18   1.0000      -0.256423        -6.9776
  19   1.0000      -0.256423        -6.9776
  20   1.0000      -0.226053        -6.1512
  21   1.0000      -0.226052        -6.1512
  22   1.0000      -0.226052        -6.1512
  23   1.0000      -0.173297        -4.7156
  24   0.0000      -0.031635        -0.8608
  25   0.0000      -0.031634        -0.8608
  26   0.0000      -0.031634        -0.8608
  27   0.0000       0.024802         0.6749
  28   0.0000       0.213910         5.8208

                 SPIN DOWN ORBITALS
  NO   OCC          E(Eh)            E(eV)
   0   1.0000    -868.688305    -23638.2105
   1   1.0000    -123.485082     -3360.1999
   2   1.0000    -111.167498     -3025.0214
   3   1.0000    -111.167497     -3025.0214
   4   1.0000    -111.167497     -3025.0214
   5   1.0000     -21.965532      -597.7125
   6   1.0000     -17.849077      -485.6981
   7   1.0000     -17.849077      -485.6981
   8   1.0000     -17.849076      -485.6981
   9   1.0000     -11.089003      -301.7471
  10   1.0000     -11.089002      -301.7471
  11   1.0000     -11.089002      -301.7471
  12   1.0000     -11.087683      -301.7112
  13   1.0000     -11.087683      -301.7112
  14   1.0000      -2.995549       -81.5130
  15   1.0000      -1.826681       -49.7065
  16   1.0000      -1.826681       -49.7065
  17   1.0000      -1.826680       -49.7065
  18   1.0000      -0.191290        -5.2053
  19   1.0000      -0.191289        -5.2052
  20   1.0000      -0.191289        -5.2052
  21   0.0000      -0.160483        -4.3670
  22   0.0000      -0.160466        -4.3665
  23   0.0000      -0.128956        -3.5091
  24   0.0000       0.004445         0.1210
  25   0.0000       0.004455         0.1212

MULLIKEN ATOMIC CHARGES AND SPIN POPULATIONS
--------------------------------------------
   0 Rh:   -0.000000    3.000000
Sum of atomic charges         :   -0.0000000

LOEWDIN ATOMIC CHARGES AND SPIN POPULATIONS
-------------------------------------------
   0 Rh:   -0.000000    3.000000

FINAL SINGLE POINT ENERGY     -4845.144752396875

DIPOLE MOMENT
-------------
                                X             Y             Z
Electronic contribution:     -0.00000       0.00000       0.00000
Nuclear contribution   :      0.00000       0.00000       0.00000
                        -----------------------------------------
Total Dipole Moment    :     -0.00000       0.00000       0.00000
                        -----------------------------------------
Magnitude (a.u.)       :      0.00000
Magnitude (Debye)      :      0.00000

Rotational constants in cm-1:     0.000000     0.000000     0.000000
Rotational constants in MHz :     0.000000     0.000000     0.000000

                             ****ORCA TERMINATED NORMALLY****
TOTAL RUN TIME: 0 days 2 hours 44 minutes 35 seconds 950 msec
