                         Program Version 5.0.1 -  RELEASE  -
|  1> !uks pbe nori verytightscf soscf notrah defgrid3
|  2>
|  3> %pal
|  4>   nprocs 32
|  5> end
|  6> %coords
|  7>   charge 0
|  8>   mult 4
|  9>   units bohrs
| 10>   coords
| 11>     Rh 0.0 0.0 0.0
| 12>   end
| 13> end
| 14> %basis
| 15>   gtoname "Rh_ano-r3.basis"
| 16>   delECP Rh
| 17> end
| 18> %rel
| 19>   method zora
| 20>   modelpot 1, 0, 0, 0
| 21>   c 137.035999084
| 22> endd                         ****END OF INPUT****

CARTESIAN COORDINATES (ANGSTROEM)
---------------------------------
  Rh     0.000000    0.000000    0.000000

 Total Charge           Charge          ....    0
 Multiplicity           Mult            ....    4
 Number of Electrons    NEL             ....   45
 Basis Dimension        Dim             ....  108

ORBITAL ENERGIES
----------------
                 SPIN UP ORBITALS
  NO   OCC          E(Eh)            E(eV)
   0   1.0000    -870.672512    -23692.2036
   1   1.0000    -123.690760     -3365.7967
   2   1.0000    -111.165721     -3024.9731
   3   1.0000    -111.165721     -3024.9731
   4   1.0000    -111.165721     -3024.9731
   5   1.0000     -22.000824      -598.6729
   6   1.0000     -17.847629      -485.6587
   7   1.0000     -17.847629      -485.6587
   8   1.0000     -17.847629      -485.6587
   9   1.0000     -11.095424      -301.9218
  10   1.0000     -11.095424      -301.9218
  11   1.0000     -11.085399      -301.6490
  12   1.0000     -11.085399      -301.6490
  13   1.0000     -11.085399      -301.6490
  14   1.0000      -3.047827       -82.9356
  15   1.0000      -1.875907       -51.0460
  16   1.0000      -1.875906       -51.0460
  17   1.0000      -1.875905       -51.0460
  18   1.0000      -0.251876        -6.8539
  19   1.0000      -0.251876        -6.8539
  20   1.0000      -0.221438        -6.0256
  21   1.0000      -0.221437        -6.0256
  22   1.0000      -0.221437        -6.0256
  23   1.0000      -0.171610        -4.6697
  24   0.0000       0.043845         1.1931
  25   0.0000       0.043846         1.1931
  26   0.0000       0.043847         1.1931
  27   0.0000       0.081761         2.2248
  28   0.0000       0.300824         8.1858

                 SPIN DOWN ORBITALS
  NO   OCC          E(Eh)            E(eV)
   0   1.0000    -870.671989    -23692.1893
   1   1.0000    -123.680531     -3365.5183
   2   1.0000    -111.157944     -3024.7614
   3   1.0000    -111.157944     -3024.7614
   4   1.0000    -111.157944     -3024.7614
   5   1.0000     -21.994923      -598.5123
   6   1.0000     -17.840987      -485.4779
   7   1.0000     -17.840987      -485.4779
   8   1.0000     -17.840987      -485.4779
   9   1.0000     -11.080070      -301.5040
  10   1.0000     -11.080070      -301.5040
  11   1.0000     -11.080070      -301.5040
  12   1.0000     -11.078751      -301.4681
  13   1.0000     -11.078751      -301.4681
  14   1.0000      -2.996781       -81.5466
  15   1.0000      -1.821312       -49.5604
  16   1.0000      -1.821312       -49.5604
  17   1.0000      -1.821311       -49.5604
  18   1.0000      -0.186616        -5.0781
  19   1.0000      -0.186616        -5.0781
  20   1.0000      -0.186615        -5.0781
  21   0.0000      -0.155724        -4.2375
  22   0.0000      -0.155712        -4.2372
  23   0.0000      -0.126634        -3.4459
  24   0.0000       0.089088         2.4242
  25   0.0000       0.089095         2.4244

MULLIKEN ATOMIC CHARGES AND SPIN POPULATIONS
--------------------------------------------
   0 Rh:   -0.000000    3.000000
Sum of atomic charges         :   -0.0000000

LOEWDIN ATOMIC CHARGES AND SPIN POPULATIONS
-------------------------------------------
   0 Rh:   -0.000000    3.000000

FINAL SINGLE POINT ENERGY     -4849.605429449619

DIPOLE MOMENT
-------------
                                X             Y             Z
Electronic contribution:     -0.00000      -0.00000       0.00000
Nuclear contribution   :      0.00000       0.00000       0.00000
                        -----------------------------------------
Total Dipole Moment    :     -0.00000      -0.00000       0.00000
                        -----------------------------------------
Magnitude (a.u.)       :      0.00000
Magnitude (Debye)      :      0.00000

Rotational constants in cm-1:     0.000000     0.000000     0.000000
Rotational constants in MHz :     0.000000     0.000000     0.000000

                             ****ORCA TERMINATED NORMALLY****
TOTAL RUN TIME: 0 days 2 hours 27 minutes 38 seconds 313 msec
