                         Program Version 5.0.1 -  RELEASE  -
|  1> !uks pbe nori verytightscf soscf notrah defgrid3
|  2>
|  3> %pal
|  4>   nprocs 32
|  5> end
|  6> %coords
|  7>   charge 0
|  8>   mult 4
|  9>   units bohrs
| 10>   coords
| 11>     Rh 0.0 0.0 0.0
| 12>   end
| 13> end
| 14> %basis
| 15>   gtoname "Rh_sapporo-qzp-2012-diffuse.basis"
| 16>   delECP Rh
| 17> end
| 18> %rel
| 19>   method zora
| 20>   modelpot 1, 0, 0, 0
| 21>   c 137.035999084
| 22> endd                         ****END OF INPUT****

CARTESIAN COORDINATES (ANGSTROEM)
---------------------------------
  Rh     0.000000    0.000000    0.000000

 Total Charge           Charge          ....    0
 Multiplicity           Mult            ....    4
 Number of Electrons    NEL             ....   45
 Basis Dimension        Dim             ....  150

ORBITAL ENERGIES
----------------
                 SPIN UP ORBITALS
  NO   OCC          E(Eh)            E(eV)
   0   1.0000    -869.603533    -23663.1152
   1   1.0000    -123.216889     -3352.9020
   2   1.0000    -111.448552     -3032.6693
   3   1.0000    -111.448552     -3032.6693
   4   1.0000    -111.448552     -3032.6693
   5   1.0000     -21.848439      -594.5263
   6   1.0000     -17.856228      -485.8927
   7   1.0000     -17.856227      -485.8926
   8   1.0000     -17.856227      -485.8926
   9   1.0000     -11.100145      -302.0503
  10   1.0000     -11.100145      -302.0503
  11   1.0000     -11.090068      -301.7761
  12   1.0000     -11.090068      -301.7761
  13   1.0000     -11.090068      -301.7761
  14   1.0000      -3.031951       -82.5036
  15   1.0000      -1.884230       -51.2725
  16   1.0000      -1.884229       -51.2725
  17   1.0000      -1.884228       -51.2725
  18   1.0000      -0.258728        -7.0404
  19   1.0000      -0.258728        -7.0404
  20   1.0000      -0.228420        -6.2156
  21   1.0000      -0.228420        -6.2156
  22   1.0000      -0.228419        -6.2156
  23   1.0000      -0.173000        -4.7076
  24   0.0000      -0.038801        -1.0558
  25   0.0000      -0.038801        -1.0558
  26   0.0000      -0.038800        -1.0558
  27   0.0000       0.002713         0.0738
  28   0.0000       0.046736         1.2718

                 SPIN DOWN ORBITALS
  NO   OCC          E(Eh)            E(eV)
   0   1.0000    -869.603129    -23663.1042
   1   1.0000    -123.206424     -3352.6172
   2   1.0000    -111.440868     -3032.4602
   3   1.0000    -111.440868     -3032.4602
   4   1.0000    -111.440868     -3032.4602
   5   1.0000     -21.842500      -594.3646
   6   1.0000     -17.849371      -485.7061
   7   1.0000     -17.849371      -485.7061
   8   1.0000     -17.849371      -485.7061
   9   1.0000     -11.084650      -301.6287
  10   1.0000     -11.084650      -301.6287
  11   1.0000     -11.084650      -301.6287
  12   1.0000     -11.083330      -301.5927
  13   1.0000     -11.083330      -301.5927
  14   1.0000      -2.980803       -81.1118
  15   1.0000      -1.829529       -49.7840
  16   1.0000      -1.829529       -49.7840
  17   1.0000      -1.829528       -49.7840
  18   1.0000      -0.193712        -5.2712
  19   1.0000      -0.193711        -5.2712
  20   1.0000      -0.193711        -5.2711
  21   0.0000      -0.163109        -4.4384
  22   0.0000      -0.163107        -4.4384
  23   0.0000      -0.129079        -3.5124
  24   0.0000      -0.005344        -0.1454
  25   0.0000      -0.005337        -0.1452

MULLIKEN ATOMIC CHARGES AND SPIN POPULATIONS
--------------------------------------------
   0 Rh:   -0.000000    3.000000
Sum of atomic charges         :   -0.0000000

LOEWDIN ATOMIC CHARGES AND SPIN POPULATIONS
-------------------------------------------
   0 Rh:   -0.000000    3.000000

FINAL SINGLE POINT ENERGY     -4837.942102750718

DIPOLE MOMENT
-------------
                                X             Y             Z
Electronic contribution:      0.00000       0.00000       0.00000
Nuclear contribution   :      0.00000       0.00000       0.00000
                        -----------------------------------------
Total Dipole Moment    :      0.00000       0.00000       0.00000
                        -----------------------------------------
Magnitude (a.u.)       :      0.00000
Magnitude (Debye)      :      0.00000

Rotational constants in cm-1:     0.000000     0.000000     0.000000
Rotational constants in MHz :     0.000000     0.000000     0.000000

                             ****ORCA TERMINATED NORMALLY****
TOTAL RUN TIME: 0 days 0 hours 1 minutes 25 seconds 313 msec
