                         Program Version 5.0.1 -  RELEASE  -
|  1> !uks pbe nori verytightscf soscf notrah defgrid3
|  2>
|  3> %pal
|  4>   nprocs 32
|  5> end
|  6> %coords
|  7>   charge 0
|  8>   mult 4
|  9>   units bohrs
| 10>   coords
| 11>     Rh 0.0 0.0 0.0
| 12>   end
| 13> end
| 14> %basis
| 15>   gtoname "Rh_sarc-zora-tzvpp.basis"
| 16>   delECP Rh
| 17> end
| 18> %rel
| 19>   method zora
| 20>   modelpot 1, 0, 0, 0
| 21>   c 137.035999084
| 22> endd                         ****END OF INPUT****

CARTESIAN COORDINATES (ANGSTROEM)
---------------------------------
  Rh     0.000000    0.000000    0.000000

 Total Charge           Charge          ....    0
 Multiplicity           Mult            ....    4
 Number of Electrons    NEL             ....   45
 Basis Dimension        Dim             ....   98

ORBITAL ENERGIES
----------------
                 SPIN UP ORBITALS
  NO   OCC          E(Eh)            E(eV)
   0   1.0000    -874.189247    -23787.8988
   1   1.0000    -124.078087     -3376.3364
   2   1.0000    -111.080950     -3022.6663
   3   1.0000    -111.080950     -3022.6663
   4   1.0000    -111.080949     -3022.6663
   5   1.0000     -22.092025      -601.1546
   6   1.0000     -17.850845      -485.7462
   7   1.0000     -17.850845      -485.7462
   8   1.0000     -17.850844      -485.7462
   9   1.0000     -11.096742      -301.9577
  10   1.0000     -11.096742      -301.9577
  11   1.0000     -11.086772      -301.6864
  12   1.0000     -11.086772      -301.6864
  13   1.0000     -11.086771      -301.6864
  14   1.0000      -3.072198       -83.5988
  15   1.0000      -1.883431       -51.2508
  16   1.0000      -1.883428       -51.2507
  17   1.0000      -1.883427       -51.2507
  18   1.0000      -0.255453        -6.9512
  19   1.0000      -0.255453        -6.9512
  20   1.0000      -0.225768        -6.1434
  21   1.0000      -0.225766        -6.1434
  22   1.0000      -0.225765        -6.1434
  23   1.0000      -0.175308        -4.7704
  24   0.0000      -0.035958        -0.9785
  25   0.0000      -0.035957        -0.9784
  26   0.0000      -0.035956        -0.9784
  27   0.0000       0.095446         2.5972
  28   0.0000       0.096308         2.6207

                 SPIN DOWN ORBITALS
  NO   OCC          E(Eh)            E(eV)
   0   1.0000    -874.188750    -23787.8852
   1   1.0000    -124.068160     -3376.0663
   2   1.0000    -111.073414     -3022.4613
   3   1.0000    -111.073414     -3022.4613
   4   1.0000    -111.073414     -3022.4613
   5   1.0000     -22.086039      -600.9917
   6   1.0000     -17.844049      -485.5612
   7   1.0000     -17.844048      -485.5612
   8   1.0000     -17.844048      -485.5612
   9   1.0000     -11.081410      -301.5405
  10   1.0000     -11.081410      -301.5405
  11   1.0000     -11.081410      -301.5405
  12   1.0000     -11.080182      -301.5071
  13   1.0000     -11.080182      -301.5071
  14   1.0000      -3.021477       -82.2186
  15   1.0000      -1.828970       -49.7688
  16   1.0000      -1.828968       -49.7688
  17   1.0000      -1.828968       -49.7687
  18   1.0000      -0.190401        -5.1811
  19   1.0000      -0.190400        -5.1810
  20   1.0000      -0.190399        -5.1810
  21   0.0000      -0.160384        -4.3643
  22   0.0000      -0.160373        -4.3640
  23   0.0000      -0.130740        -3.5576
  24   0.0000      -0.002029        -0.0552
  25   0.0000      -0.002017        -0.0549

MULLIKEN ATOMIC CHARGES AND SPIN POPULATIONS
--------------------------------------------
   0 Rh:   -0.000000    3.000000
Sum of atomic charges         :   -0.0000000

LOEWDIN ATOMIC CHARGES AND SPIN POPULATIONS
-------------------------------------------
   0 Rh:   -0.000000    3.000000

FINAL SINGLE POINT ENERGY     -4858.095137608322

DIPOLE MOMENT
-------------
                                X             Y             Z
Electronic contribution:     -0.00000      -0.00000      -0.00000
Nuclear contribution   :      0.00000       0.00000       0.00000
                        -----------------------------------------
Total Dipole Moment    :     -0.00000      -0.00000      -0.00000
                        -----------------------------------------
Magnitude (a.u.)       :      0.00000
Magnitude (Debye)      :      0.00000

Rotational constants in cm-1:     0.000000     0.000000     0.000000
Rotational constants in MHz :     0.000000     0.000000     0.000000

                             ****ORCA TERMINATED NORMALLY****
TOTAL RUN TIME: 0 days 0 hours 1 minutes 42 seconds 215 msec
