                         Program Version 5.0.1 -  RELEASE  -
|  1> !uks pbe nori verytightscf soscf notrah defgrid3
|  2>
|  3> %pal
|  4>   nprocs 32
|  5> end
|  6> %coords
|  7>   charge 0
|  8>   mult 4
|  9>   units bohrs
| 10>   coords
| 11>     Rh 0.0 0.0 0.0
| 12>   end
| 13> end
| 14> %basis
| 15>   gtoname "Rh_ugbs.basis"
| 16>   delECP Rh
| 17> end
| 18> %rel
| 19>   method zora
| 20>   modelpot 1, 0, 0, 0
| 21>   c 137.035999084
| 22> endd                         ****END OF INPUT****

CARTESIAN COORDINATES (ANGSTROEM)
---------------------------------
  Rh     0.000000    0.000000    0.000000

 Total Charge           Charge          ....    0
 Multiplicity           Mult            ....    4
 Number of Electrons    NEL             ....   45
 Basis Dimension        Dim             ....  180

ORBITAL ENERGIES
----------------
                 SPIN UP ORBITALS
  NO   OCC          E(Eh)            E(eV)
   0   1.0000    -874.137589    -23786.4931
   1   1.0000    -123.998568     -3374.1726
   2   1.0000    -110.991821     -3020.2410
   3   1.0000    -110.991821     -3020.2410
   4   1.0000    -110.991821     -3020.2410
   5   1.0000     -22.070210      -600.5609
   6   1.0000     -17.830723      -485.1986
   7   1.0000     -17.830722      -485.1986
   8   1.0000     -17.830722      -485.1986
   9   1.0000     -11.077120      -301.4238
  10   1.0000     -11.077120      -301.4238
  11   1.0000     -11.067085      -301.1507
  12   1.0000     -11.067084      -301.1507
  13   1.0000     -11.067084      -301.1507
  14   1.0000      -3.068163       -83.4890
  15   1.0000      -1.880513       -51.1714
  16   1.0000      -1.880513       -51.1713
  17   1.0000      -1.880510       -51.1713
  18   1.0000      -0.255474        -6.9518
  19   1.0000      -0.255474        -6.9518
  20   1.0000      -0.226947        -6.1755
  21   1.0000      -0.226947        -6.1755
  22   1.0000      -0.226945        -6.1755
  23   1.0000      -0.175529        -4.7764
  24   0.0000       0.007839         0.2133
  25   0.0000       0.024497         0.6666
  26   0.0000       0.024498         0.6666
  27   0.0000       0.024500         0.6667
  28   0.0000       0.121233         3.2989

                 SPIN DOWN ORBITALS
  NO   OCC          E(Eh)            E(eV)
   0   1.0000    -874.137081    -23786.4792
   1   1.0000    -123.987921     -3373.8829
   2   1.0000    -110.983723     -3020.0206
   3   1.0000    -110.983723     -3020.0206
   4   1.0000    -110.983723     -3020.0206
   5   1.0000     -22.064347      -600.4014
   6   1.0000     -17.824081      -485.0179
   7   1.0000     -17.824081      -485.0179
   8   1.0000     -17.824080      -485.0179
   9   1.0000     -11.061528      -300.9995
  10   1.0000     -11.061528      -300.9995
  11   1.0000     -11.061528      -300.9995
  12   1.0000     -11.060320      -300.9666
  13   1.0000     -11.060320      -300.9666
  14   1.0000      -3.017480       -82.1098
  15   1.0000      -1.826122       -49.6913
  16   1.0000      -1.826122       -49.6913
  17   1.0000      -1.826120       -49.6913
  18   1.0000      -0.190638        -5.1875
  19   1.0000      -0.190637        -5.1875
  20   1.0000      -0.190636        -5.1875
  21   0.0000      -0.162280        -4.4159
  22   0.0000      -0.162272        -4.4157
  23   0.0000      -0.131063        -3.5664
  24   0.0000       0.029072         0.7911
  25   0.0000       0.066547         1.8108

MULLIKEN ATOMIC CHARGES AND SPIN POPULATIONS
--------------------------------------------
   0 Rh:    0.000000    3.000000
Sum of atomic charges         :    0.0000000

LOEWDIN ATOMIC CHARGES AND SPIN POPULATIONS
-------------------------------------------
   0 Rh:    0.000000    3.000000

FINAL SINGLE POINT ENERGY     -4858.397334546354

DIPOLE MOMENT
-------------
                                X             Y             Z
Electronic contribution:      0.00000       0.00000      -0.00000
Nuclear contribution   :      0.00000       0.00000       0.00000
                        -----------------------------------------
Total Dipole Moment    :      0.00000       0.00000      -0.00000
                        -----------------------------------------
Magnitude (a.u.)       :      0.00000
Magnitude (Debye)      :      0.00000

Rotational constants in cm-1:     0.000000     0.000000     0.000000
Rotational constants in MHz :     0.000000     0.000000     0.000000

                             ****ORCA TERMINATED NORMALLY****
TOTAL RUN TIME: 0 days 0 hours 1 minutes 30 seconds 869 msec
