                         Program Version 5.0.1 -  RELEASE  -
|  1> !uks pbe nori verytightscf soscf notrah defgrid3
|  2>
|  3> %pal
|  4>   nprocs 32
|  5> end
|  6> %coords
|  7>   charge 0
|  8>   mult 5
|  9>   units bohrs
| 10>   coords
| 11>     Ru 0.0 0.0 0.0
| 12>   end
| 13> end
| 14> %basis
| 15>   gtoname "Ru_ano-rcc-vqzp.basis"
| 16>   delECP Ru
| 17> end
| 18> %rel
| 19>   method zora
| 20>   modelpot 1, 0, 0, 0
| 21>   c 137.035999084
| 22> endd                         ****END OF INPUT****

CARTESIAN COORDINATES (ANGSTROEM)
---------------------------------
  Ru     0.000000    0.000000    0.000000

 Total Charge           Charge          ....    0
 Multiplicity           Mult            ....    5
 Number of Electrons    NEL             ....   44
 Basis Dimension        Dim             ....  104

ORBITAL ENERGIES
----------------
                 SPIN UP ORBITALS
  NO   OCC          E(Eh)            E(eV)
   0   1.0000    -826.210486    -22482.3303
   1   1.0000    -116.605521     -3172.9975
   2   1.0000    -104.887449     -2854.1326
   3   1.0000    -104.887449     -2854.1326
   4   1.0000    -104.887448     -2854.1326
   5   1.0000     -20.445901      -556.3613
   6   1.0000     -16.534409      -449.9241
   7   1.0000     -16.534409      -449.9241
   8   1.0000     -16.534407      -449.9241
   9   1.0000     -10.086139      -274.4578
  10   1.0000     -10.086139      -274.4578
  11   1.0000     -10.086138      -274.4578
  12   1.0000     -10.077205      -274.2147
  13   1.0000     -10.077204      -274.2147
  14   1.0000      -2.827399       -76.9374
  15   1.0000      -1.739171       -47.3253
  16   1.0000      -1.739169       -47.3252
  17   1.0000      -1.739167       -47.3251
  18   1.0000      -0.228866        -6.2278
  19   1.0000      -0.228866        -6.2278
  20   1.0000      -0.228865        -6.2277
  21   1.0000      -0.200695        -5.4612
  22   1.0000      -0.200694        -5.4611
  23   1.0000      -0.173152        -4.7117
  24   0.0000      -0.036604        -0.9960
  25   0.0000      -0.036602        -0.9960
  26   0.0000      -0.036602        -0.9960
  27   0.0000       0.022610         0.6153
  28   0.0000       0.173751         4.7280

                 SPIN DOWN ORBITALS
  NO   OCC          E(Eh)            E(eV)
   0   1.0000    -826.210095    -22482.3197
   1   1.0000    -116.591969     -3172.6288
   2   1.0000    -104.877236     -2853.8547
   3   1.0000    -104.877236     -2853.8547
   4   1.0000    -104.877236     -2853.8547
   5   1.0000     -20.438163      -556.1507
   6   1.0000     -16.525688      -449.6868
   7   1.0000     -16.525688      -449.6868
   8   1.0000     -16.525687      -449.6868
   9   1.0000     -10.070198      -274.0240
  10   1.0000     -10.070198      -274.0240
  11   1.0000     -10.069049      -273.9928
  12   1.0000     -10.069049      -273.9927
  13   1.0000     -10.069048      -273.9927
  14   1.0000      -2.755698       -74.9863
  15   1.0000      -1.661733       -45.2180
  16   1.0000      -1.661732       -45.2180
  17   1.0000      -1.661731       -45.2180
  18   1.0000      -0.153823        -4.1857
  19   1.0000      -0.153823        -4.1857
  20   0.0000      -0.122930        -3.3451
  21   0.0000      -0.122926        -3.3450
  22   0.0000      -0.122917        -3.3447
  23   0.0000      -0.118691        -3.2298
  24   0.0000       0.004771         0.1298

MULLIKEN ATOMIC CHARGES AND SPIN POPULATIONS
--------------------------------------------
   0 Ru:   -0.000000    4.000000
Sum of atomic charges         :   -0.0000000

LOEWDIN ATOMIC CHARGES AND SPIN POPULATIONS
-------------------------------------------
   0 Ru:    0.000000    4.000000

FINAL SINGLE POINT ENERGY     -4586.211095254149

DIPOLE MOMENT
-------------
                                X             Y             Z
Electronic contribution:      0.00000       0.00000       0.00000
Nuclear contribution   :      0.00000       0.00000       0.00000
                        -----------------------------------------
Total Dipole Moment    :      0.00000       0.00000       0.00000
                        -----------------------------------------
Magnitude (a.u.)       :      0.00000
Magnitude (Debye)      :      0.00000

Rotational constants in cm-1:     0.000000     0.000000     0.000000
Rotational constants in MHz :     0.000000     0.000000     0.000000

                             ****ORCA TERMINATED NORMALLY****
TOTAL RUN TIME: 0 days 3 hours 45 minutes 40 seconds 493 msec
