                         Program Version 5.0.1 -  RELEASE  -
|  1> !uks pbe nori verytightscf soscf notrah defgrid3
|  2>
|  3> %pal
|  4>   nprocs 32
|  5> end
|  6> %coords
|  7>   charge 0
|  8>   mult 5
|  9>   units bohrs
| 10>   coords
| 11>     Ru 0.0 0.0 0.0
| 12>   end
| 13> end
| 14> %basis
| 15>   gtoname "Ru_ano-r3.basis"
| 16>   delECP Ru
| 17> end
| 18> %rel
| 19>   method zora
| 20>   modelpot 1, 0, 0, 0
| 21>   c 137.035999084
| 22> endd                         ****END OF INPUT****

CARTESIAN COORDINATES (ANGSTROEM)
---------------------------------
  Ru     0.000000    0.000000    0.000000

 Total Charge           Charge          ....    0
 Multiplicity           Mult            ....    5
 Number of Electrons    NEL             ....   44
 Basis Dimension        Dim             ....  101

ORBITAL ENERGIES
----------------
                 SPIN UP ORBITALS
  NO   OCC          E(Eh)            E(eV)
   0   1.0000    -828.034910    -22531.9754
   1   1.0000    -116.780321     -3177.7541
   2   1.0000    -104.873217     -2853.7453
   3   1.0000    -104.873217     -2853.7453
   4   1.0000    -104.873217     -2853.7453
   5   1.0000     -20.471125      -557.0476
   6   1.0000     -16.525478      -449.6811
   7   1.0000     -16.525477      -449.6811
   8   1.0000     -16.525476      -449.6811
   9   1.0000     -10.076307      -274.1902
  10   1.0000     -10.076306      -274.1902
  11   1.0000     -10.076306      -274.1902
  12   1.0000     -10.067335      -273.9461
  13   1.0000     -10.067335      -273.9461
  14   1.0000      -2.828696       -76.9727
  15   1.0000      -1.734592       -47.2007
  16   1.0000      -1.734590       -47.2006
  17   1.0000      -1.734588       -47.2006
  18   1.0000      -0.225231        -6.1289
  19   1.0000      -0.225231        -6.1288
  20   1.0000      -0.225230        -6.1288
  21   1.0000      -0.196981        -5.3601
  22   1.0000      -0.196980        -5.3601
  23   1.0000      -0.171773        -4.6742
  24   0.0000       0.025868         0.7039
  25   0.0000       0.025870         0.7040
  26   0.0000       0.025870         0.7040
  27   0.0000       0.125187         3.4065
  28   0.0000       0.252200         6.8627

                 SPIN DOWN ORBITALS
  NO   OCC          E(Eh)            E(eV)
   0   1.0000    -828.034522    -22531.9648
   1   1.0000    -116.766715     -3177.3839
   2   1.0000    -104.862958     -2853.4661
   3   1.0000    -104.862958     -2853.4661
   4   1.0000    -104.862957     -2853.4661
   5   1.0000     -20.463370      -556.8366
   6   1.0000     -16.516752      -449.4437
   7   1.0000     -16.516751      -449.4437
   8   1.0000     -16.516750      -449.4436
   9   1.0000     -10.060316      -273.7551
  10   1.0000     -10.060316      -273.7551
  11   1.0000     -10.059160      -273.7237
  12   1.0000     -10.059160      -273.7236
  13   1.0000     -10.059159      -273.7236
  14   1.0000      -2.757179       -75.0267
  15   1.0000      -1.657319       -45.0979
  16   1.0000      -1.657318       -45.0979
  17   1.0000      -1.657318       -45.0979
  18   1.0000      -0.150079        -4.0839
  19   1.0000      -0.150079        -4.0838
  20   0.0000      -0.119087        -3.2405
  21   0.0000      -0.119085        -3.2405
  22   0.0000      -0.119079        -3.2403
  23   0.0000      -0.116545        -3.1713
  24   0.0000       0.080085         2.1792

MULLIKEN ATOMIC CHARGES AND SPIN POPULATIONS
--------------------------------------------
   0 Ru:   -0.000000    4.000000
Sum of atomic charges         :   -0.0000000

LOEWDIN ATOMIC CHARGES AND SPIN POPULATIONS
-------------------------------------------
   0 Ru:   -0.000000    4.000000

FINAL SINGLE POINT ENERGY     -4590.329198554602

DIPOLE MOMENT
-------------
                                X             Y             Z
Electronic contribution:      0.00000       0.00000       0.00000
Nuclear contribution   :      0.00000       0.00000       0.00000
                        -----------------------------------------
Total Dipole Moment    :      0.00000       0.00000       0.00000
                        -----------------------------------------
Magnitude (a.u.)       :      0.00000
Magnitude (Debye)      :      0.00000

Rotational constants in cm-1:     0.000000     0.000000     0.000000
Rotational constants in MHz :     0.000000     0.000000     0.000000

                             ****ORCA TERMINATED NORMALLY****
TOTAL RUN TIME: 0 days 1 hours 33 minutes 23 seconds 960 msec
