                         Program Version 5.0.1 -  RELEASE  -
|  1> !uks pbe nori verytightscf soscf notrah defgrid3
|  2>
|  3> %pal
|  4>   nprocs 32
|  5> end
|  6> %coords
|  7>   charge 0
|  8>   mult 5
|  9>   units bohrs
| 10>   coords
| 11>     Ru 0.0 0.0 0.0
| 12>   end
| 13> end
| 14> %basis
| 15>   gtoname "Ru_sapporo-qzp-2012-diffuse.basis"
| 16>   delECP Ru
| 17> end
| 18> %rel
| 19>   method zora
| 20>   modelpot 1, 0, 0, 0
| 21>   c 137.035999084
| 22> endd                         ****END OF INPUT****

CARTESIAN COORDINATES (ANGSTROEM)
---------------------------------
  Ru     0.000000    0.000000    0.000000

 Total Charge           Charge          ....    0
 Multiplicity           Mult            ....    5
 Number of Electrons    NEL             ....   44
 Basis Dimension        Dim             ....  150

ORBITAL ENERGIES
----------------
                 SPIN UP ORBITALS
  NO   OCC          E(Eh)            E(eV)
   0   1.0000    -827.359939    -22513.6085
   1   1.0000    -116.388724     -3167.0982
   2   1.0000    -105.133223     -2860.8204
   3   1.0000    -105.133223     -2860.8204
   4   1.0000    -105.133222     -2860.8204
   5   1.0000     -20.339279      -553.4599
   6   1.0000     -16.532443      -449.8706
   7   1.0000     -16.532442      -449.8706
   8   1.0000     -16.532441      -449.8706
   9   1.0000     -10.077110      -274.2121
  10   1.0000     -10.077110      -274.2121
  11   1.0000     -10.077110      -274.2121
  12   1.0000     -10.068091      -273.9667
  13   1.0000     -10.068091      -273.9667
  14   1.0000      -2.815755       -76.6206
  15   1.0000      -1.742203       -47.4078
  16   1.0000      -1.742201       -47.4077
  17   1.0000      -1.742201       -47.4077
  18   1.0000      -0.230995        -6.2857
  19   1.0000      -0.230994        -6.2857
  20   1.0000      -0.230993        -6.2857
  21   1.0000      -0.202908        -5.5214
  22   1.0000      -0.202906        -5.5214
  23   1.0000      -0.172920        -4.7054
  24   0.0000      -0.042467        -1.1556
  25   0.0000      -0.042466        -1.1556
  26   0.0000      -0.042466        -1.1555
  27   0.0000       0.002021         0.0550
  28   0.0000       0.041362         1.1255

                 SPIN DOWN ORBITALS
  NO   OCC          E(Eh)            E(eV)
   0   1.0000    -827.359631    -22513.6001
   1   1.0000    -116.374786     -3166.7189
   2   1.0000    -105.123059     -2860.5439
   3   1.0000    -105.123058     -2860.5438
   4   1.0000    -105.123058     -2860.5438
   5   1.0000     -20.331409      -553.2458
   6   1.0000     -16.523410      -449.6249
   7   1.0000     -16.523410      -449.6248
   8   1.0000     -16.523409      -449.6248
   9   1.0000     -10.060928      -273.7718
  10   1.0000     -10.060927      -273.7717
  11   1.0000     -10.059768      -273.7402
  12   1.0000     -10.059767      -273.7402
  13   1.0000     -10.059767      -273.7402
  14   1.0000      -2.744125       -74.6714
  15   1.0000      -1.664775       -45.3008
  16   1.0000      -1.664775       -45.3008
  17   1.0000      -1.664774       -45.3008
  18   1.0000      -0.156122        -4.2483
  19   1.0000      -0.156122        -4.2483
  20   0.0000      -0.125460        -3.4139
  21   0.0000      -0.125449        -3.4136
  22   0.0000      -0.125444        -3.4135
  23   0.0000      -0.119106        -3.2410
  24   0.0000      -0.004546        -0.1237

MULLIKEN ATOMIC CHARGES AND SPIN POPULATIONS
--------------------------------------------
   0 Ru:   -0.000000    4.000000
Sum of atomic charges         :   -0.0000000

LOEWDIN ATOMIC CHARGES AND SPIN POPULATIONS
-------------------------------------------
   0 Ru:   -0.000000    4.000000

FINAL SINGLE POINT ENERGY     -4580.393848671336

DIPOLE MOMENT
-------------
                                X             Y             Z
Electronic contribution:     -0.00000      -0.00000      -0.00000
Nuclear contribution   :      0.00000       0.00000       0.00000
                        -----------------------------------------
Total Dipole Moment    :     -0.00000      -0.00000      -0.00000
                        -----------------------------------------
Magnitude (a.u.)       :      0.00000
Magnitude (Debye)      :      0.00000

Rotational constants in cm-1:     0.000000     0.000000     0.000000
Rotational constants in MHz :     0.000000     0.000000     0.000000

                             ****ORCA TERMINATED NORMALLY****
TOTAL RUN TIME: 0 days 0 hours 0 minutes 58 seconds 394 msec
