                         Program Version 5.0.1 -  RELEASE  -
|  1> !uks pbe nori verytightscf soscf notrah defgrid3
|  2>
|  3> %pal
|  4>   nprocs 32
|  5> end
|  6> %coords
|  7>   charge 0
|  8>   mult 5
|  9>   units bohrs
| 10>   coords
| 11>     Ru 0.0 0.0 0.0
| 12>   end
| 13> end
| 14> %basis
| 15>   gtoname "Ru_sarc-zora-tzvpp.basis"
| 16>   delECP Ru
| 17> end
| 18> %rel
| 19>   method zora
| 20>   modelpot 1, 0, 0, 0
| 21>   c 137.035999084
| 22> endd                         ****END OF INPUT****

CARTESIAN COORDINATES (ANGSTROEM)
---------------------------------
  Ru     0.000000    0.000000    0.000000

 Total Charge           Charge          ....    0
 Multiplicity           Mult            ....    5
 Number of Electrons    NEL             ....   44
 Basis Dimension        Dim             ....   98

ORBITAL ENERGIES
----------------
                 SPIN UP ORBITALS
  NO   OCC          E(Eh)            E(eV)
   0   1.0000    -831.211168    -22618.4058
   1   1.0000    -117.117154     -3186.9198
   2   1.0000    -104.782581     -2851.2790
   3   1.0000    -104.782580     -2851.2790
   4   1.0000    -104.782580     -2851.2790
   5   1.0000     -20.549099      -559.1694
   6   1.0000     -16.524857      -449.6642
   7   1.0000     -16.524856      -449.6642
   8   1.0000     -16.524856      -449.6642
   9   1.0000     -10.073807      -274.1222
  10   1.0000     -10.073807      -274.1222
  11   1.0000     -10.073807      -274.1222
  12   1.0000     -10.064873      -273.8791
  13   1.0000     -10.064872      -273.8791
  14   1.0000      -2.849298       -77.5333
  15   1.0000      -1.740722       -47.3675
  16   1.0000      -1.740719       -47.3674
  17   1.0000      -1.740719       -47.3674
  18   1.0000      -0.228263        -6.2113
  19   1.0000      -0.228262        -6.2113
  20   1.0000      -0.228261        -6.2113
  21   1.0000      -0.200851        -5.4654
  22   1.0000      -0.200850        -5.4654
  23   1.0000      -0.175112        -4.7651
  24   0.0000      -0.039684        -1.0799
  25   0.0000      -0.039683        -1.0798
  26   0.0000      -0.039683        -1.0798
  27   0.0000       0.087403         2.3783
  28   0.0000       0.087840         2.3902

                 SPIN DOWN ORBITALS
  NO   OCC          E(Eh)            E(eV)
   0   1.0000    -831.210808    -22618.3960
   1   1.0000    -117.103885     -3186.5587
   2   1.0000    -104.772594     -2851.0072
   3   1.0000    -104.772594     -2851.0072
   4   1.0000    -104.772594     -2851.0072
   5   1.0000     -20.541210      -558.9547
   6   1.0000     -16.515915      -449.4209
   7   1.0000     -16.515915      -449.4209
   8   1.0000     -16.515914      -449.4209
   9   1.0000     -10.057776      -273.6860
  10   1.0000     -10.057776      -273.6860
  11   1.0000     -10.056677      -273.6561
  12   1.0000     -10.056676      -273.6561
  13   1.0000     -10.056676      -273.6561
  14   1.0000      -2.778270       -75.6006
  15   1.0000      -1.663656       -45.2704
  16   1.0000      -1.663655       -45.2704
  17   1.0000      -1.663655       -45.2703
  18   1.0000      -0.153113        -4.1664
  19   1.0000      -0.153112        -4.1664
  20   0.0000      -0.123165        -3.3515
  21   0.0000      -0.123158        -3.3513
  22   0.0000      -0.123153        -3.3512
  23   0.0000      -0.120249        -3.2721
  24   0.0000      -0.000620        -0.0169

MULLIKEN ATOMIC CHARGES AND SPIN POPULATIONS
--------------------------------------------
   0 Ru:   -0.000000    4.000000
Sum of atomic charges         :   -0.0000000

LOEWDIN ATOMIC CHARGES AND SPIN POPULATIONS
-------------------------------------------
   0 Ru:   -0.000000    4.000000

FINAL SINGLE POINT ENERGY     -4598.037889388421

DIPOLE MOMENT
-------------
                                X             Y             Z
Electronic contribution:      0.00000      -0.00000      -0.00000
Nuclear contribution   :      0.00000       0.00000       0.00000
                        -----------------------------------------
Total Dipole Moment    :      0.00000      -0.00000      -0.00000
                        -----------------------------------------
Magnitude (a.u.)       :      0.00000
Magnitude (Debye)      :      0.00000

Rotational constants in cm-1:     0.000000     0.000000     0.000000
Rotational constants in MHz :     0.000000     0.000000     0.000000

                             ****ORCA TERMINATED NORMALLY****
TOTAL RUN TIME: 0 days 0 hours 0 minutes 41 seconds 35 msec
