                         Program Version 5.0.1 -  RELEASE  -
|  1> !uks pbe nori verytightscf soscf notrah defgrid3
|  2>
|  3> %pal
|  4>   nprocs 32
|  5> end
|  6> %coords
|  7>   charge 0
|  8>   mult 5
|  9>   units bohrs
| 10>   coords
| 11>     Ru 0.0 0.0 0.0
| 12>   end
| 13> end
| 14> %basis
| 15>   gtoname "Ru_ugbs.basis"
| 16>   delECP Ru
| 17> end
| 18> %rel
| 19>   method zora
| 20>   modelpot 1, 0, 0, 0
| 21>   c 137.035999084
| 22> endd                         ****END OF INPUT****

CARTESIAN COORDINATES (ANGSTROEM)
---------------------------------
  Ru     0.000000    0.000000    0.000000

 Total Charge           Charge          ....    0
 Multiplicity           Mult            ....    5
 Number of Electrons    NEL             ....   44
 Basis Dimension        Dim             ....  182

ORBITAL ENERGIES
----------------
                 SPIN UP ORBITALS
  NO   OCC          E(Eh)            E(eV)
   0   1.0000    -831.158302    -22616.9672
   1   1.0000    -117.042858     -3184.8981
   2   1.0000    -104.699876     -2849.0285
   3   1.0000    -104.699876     -2849.0285
   4   1.0000    -104.699875     -2849.0285
   5   1.0000     -20.529555      -558.6376
   6   1.0000     -16.507030      -449.1791
   7   1.0000     -16.507030      -449.1791
   8   1.0000     -16.507029      -449.1791
   9   1.0000     -10.056546      -273.6525
  10   1.0000     -10.056546      -273.6525
  11   1.0000     -10.056545      -273.6525
  12   1.0000     -10.047581      -273.4086
  13   1.0000     -10.047580      -273.4086
  14   1.0000      -2.845716       -77.4359
  15   1.0000      -1.738053       -47.2948
  16   1.0000      -1.738053       -47.2948
  17   1.0000      -1.738052       -47.2948
  18   1.0000      -0.228193        -6.2094
  19   1.0000      -0.228192        -6.2094
  20   1.0000      -0.228191        -6.2094
  21   1.0000      -0.201948        -5.4953
  22   1.0000      -0.201946        -5.4952
  23   1.0000      -0.175125        -4.7654
  24   0.0000       0.007779         0.2117
  25   0.0000       0.023024         0.6265
  26   0.0000       0.023026         0.6266
  27   0.0000       0.023026         0.6266
  28   0.0000       0.121258         3.2996

                 SPIN DOWN ORBITALS
  NO   OCC          E(Eh)            E(eV)
   0   1.0000    -831.157925    -22616.9570
   1   1.0000    -117.028606     -3184.5103
   2   1.0000    -104.689123     -2848.7359
   3   1.0000    -104.689123     -2848.7359
   4   1.0000    -104.689123     -2848.7359
   5   1.0000     -20.521830      -558.4274
   6   1.0000     -16.498282      -448.9411
   7   1.0000     -16.498282      -448.9411
   8   1.0000     -16.498282      -448.9411
   9   1.0000     -10.040212      -273.2081
  10   1.0000     -10.040212      -273.2081
  11   1.0000     -10.039130      -273.1786
  12   1.0000     -10.039130      -273.1786
  13   1.0000     -10.039130      -273.1786
  14   1.0000      -2.774702       -75.5035
  15   1.0000      -1.661042       -45.1993
  16   1.0000      -1.661042       -45.1992
  17   1.0000      -1.661041       -45.1992
  18   1.0000      -0.152666        -4.1542
  19   1.0000      -0.152665        -4.1542
  20   0.0000      -0.124456        -3.3866
  21   0.0000      -0.124452        -3.3865
  22   0.0000      -0.124450        -3.3865
  23   0.0000      -0.120497        -3.2789
  24   0.0000       0.030228         0.8225

MULLIKEN ATOMIC CHARGES AND SPIN POPULATIONS
--------------------------------------------
   0 Ru:    0.000000    4.000000
Sum of atomic charges         :    0.0000000

LOEWDIN ATOMIC CHARGES AND SPIN POPULATIONS
-------------------------------------------
   0 Ru:    0.000000    4.000000

FINAL SINGLE POINT ENERGY     -4598.301709733240

DIPOLE MOMENT
-------------
                                X             Y             Z
Electronic contribution:      0.00000      -0.00000      -0.00000
Nuclear contribution   :      0.00000       0.00000       0.00000
                        -----------------------------------------
Total Dipole Moment    :      0.00000      -0.00000      -0.00000
                        -----------------------------------------
Magnitude (a.u.)       :      0.00000
Magnitude (Debye)      :      0.00000

Rotational constants in cm-1:     0.000000     0.000000     0.000000
Rotational constants in MHz :     0.000000     0.000000     0.000000

                             ****ORCA TERMINATED NORMALLY****
TOTAL RUN TIME: 0 days 0 hours 0 minutes 38 seconds 488 msec
