                         Program Version 5.0.1 -  RELEASE  -
|  1> !uks pbe nori verytightscf soscf notrah defgrid3
|  2>
|  3> %pal
|  4>   nprocs 32
|  5> end
|  6> %coords
|  7>   charge 0
|  8>   mult 4
|  9>   units bohrs
| 10>   coords
| 11>     Sb 0.0 0.0 0.0
| 12>   end
| 13> end
| 14> %basis
| 15>   gtoname "Sb_ano-rcc-vqzp.basis"
| 16>   delECP Sb
| 17> end
| 18> %rel
| 19>   method zora
| 20>   modelpot 1, 0, 0, 0
| 21>   c 137.035999084
| 22> endd                         ****END OF INPUT****

CARTESIAN COORDINATES (ANGSTROEM)
---------------------------------
  Sb     0.000000    0.000000    0.000000

 Total Charge           Charge          ....    0
 Multiplicity           Mult            ....    4
 Number of Electrons    NEL             ....   51
 Basis Dimension        Dim             ....   93

ORBITAL ENERGIES
----------------
                 SPIN UP ORBITALS
  NO   OCC          E(Eh)            E(eV)
   0   1.0000   -1151.511321    -31334.2161
   1   1.0000    -170.779034     -4647.1338
   2   1.0000    -154.182986     -4195.5323
   3   1.0000    -154.182986     -4195.5323
   4   1.0000    -154.182986     -4195.5323
   5   1.0000     -33.303320      -906.2294
   6   1.0000     -27.795554      -756.3555
   7   1.0000     -27.795554      -756.3555
   8   1.0000     -27.795554      -756.3555
   9   1.0000     -19.077492      -519.1250
  10   1.0000     -19.077492      -519.1250
  11   1.0000     -19.077492      -519.1250
  12   1.0000     -19.077492      -519.1250
  13   1.0000     -19.077492      -519.1250
  14   1.0000      -5.456751      -148.4857
  15   1.0000      -3.754238      -102.1580
  16   1.0000      -3.754238      -102.1580
  17   1.0000      -3.754238      -102.1580
  18   1.0000      -1.227240       -33.3949
  19   1.0000      -1.227240       -33.3949
  20   1.0000      -1.227240       -33.3949
  21   1.0000      -1.227240       -33.3949
  22   1.0000      -1.227240       -33.3949
  23   1.0000      -0.492720       -13.4076
  24   1.0000      -0.202628        -5.5138
  25   1.0000      -0.202628        -5.5138
  26   1.0000      -0.202628        -5.5138
  27   0.0000       0.012695         0.3454
  28   0.0000       0.043082         1.1723
  29   0.0000       0.043082         1.1723
  30   0.0000       0.043082         1.1723
  31   0.0000       0.119181         3.2431

                 SPIN DOWN ORBITALS
  NO   OCC          E(Eh)            E(eV)
   0   1.0000   -1151.509231    -31334.1592
   1   1.0000    -170.778244     -4647.1123
   2   1.0000    -154.181328     -4195.4872
   3   1.0000    -154.181328     -4195.4872
   4   1.0000    -154.181328     -4195.4872
   5   1.0000     -33.301459      -906.1788
   6   1.0000     -27.793440      -756.2979
   7   1.0000     -27.793440      -756.2979
   8   1.0000     -27.793440      -756.2979
   9   1.0000     -19.075516      -519.0712
  10   1.0000     -19.075516      -519.0712
  11   1.0000     -19.075516      -519.0712
  12   1.0000     -19.075516      -519.0712
  13   1.0000     -19.075516      -519.0712
  14   1.0000      -5.452270      -148.3638
  15   1.0000      -3.749448      -102.0277
  16   1.0000      -3.749448      -102.0277
  17   1.0000      -3.749448      -102.0277
  18   1.0000      -1.217059       -33.1178
  19   1.0000      -1.217059       -33.1178
  20   1.0000      -1.217059       -33.1178
  21   1.0000      -1.217059       -33.1178
  22   1.0000      -1.217059       -33.1178
  23   1.0000      -0.425375       -11.5750
  24   0.0000      -0.131275        -3.5722
  25   0.0000      -0.131275        -3.5722
  26   0.0000      -0.131275        -3.5722
  27   0.0000       0.057294         1.5590
  28   0.0000       0.082891         2.2556

MULLIKEN ATOMIC CHARGES AND SPIN POPULATIONS
--------------------------------------------
   0 Sb:    0.000000    3.000000
Sum of atomic charges         :    0.0000000

LOEWDIN ATOMIC CHARGES AND SPIN POPULATIONS
-------------------------------------------
   0 Sb:    0.000000    3.000000

FINAL SINGLE POINT ENERGY     -6585.978572522319

DIPOLE MOMENT
-------------
                                X             Y             Z
Electronic contribution:     -0.00000      -0.00000       0.00000
Nuclear contribution   :      0.00000       0.00000       0.00000
                        -----------------------------------------
Total Dipole Moment    :     -0.00000      -0.00000       0.00000
                        -----------------------------------------
Magnitude (a.u.)       :      0.00000
Magnitude (Debye)      :      0.00000

Rotational constants in cm-1:     0.000000     0.000000     0.000000
Rotational constants in MHz :     0.000000     0.000000     0.000000

                             ****ORCA TERMINATED NORMALLY****
TOTAL RUN TIME: 0 days 0 hours 9 minutes 57 seconds 529 msec
