                         Program Version 5.0.1 -  RELEASE  -
|  1> !uks pbe nori verytightscf soscf notrah defgrid3
|  2>
|  3> %pal
|  4>   nprocs 32
|  5> end
|  6> %coords
|  7>   charge 0
|  8>   mult 4
|  9>   units bohrs
| 10>   coords
| 11>     Sb 0.0 0.0 0.0
| 12>   end
| 13> end
| 14> %basis
| 15>   gtoname "Sb_ano-r3.basis"
| 16>   delECP Sb
| 17> end
| 18> %rel
| 19>   method zora
| 20>   modelpot 1, 0, 0, 0
| 21>   c 137.035999084
| 22> endd                         ****END OF INPUT****

CARTESIAN COORDINATES (ANGSTROEM)
---------------------------------
  Sb     0.000000    0.000000    0.000000

 Total Charge           Charge          ....    0
 Multiplicity           Mult            ....    4
 Number of Electrons    NEL             ....   51
 Basis Dimension        Dim             ....  104

ORBITAL ENERGIES
----------------
                 SPIN UP ORBITALS
  NO   OCC          E(Eh)            E(eV)
   0   1.0000   -1154.583956    -31417.8267
   1   1.0000    -171.080528     -4655.3378
   2   1.0000    -154.156257     -4194.8050
   3   1.0000    -154.156257     -4194.8050
   4   1.0000    -154.156257     -4194.8050
   5   1.0000     -33.354274      -907.6159
   6   1.0000     -27.783408      -756.0250
   7   1.0000     -27.783408      -756.0250
   8   1.0000     -27.783408      -756.0250
   9   1.0000     -19.063010      -518.7309
  10   1.0000     -19.063010      -518.7309
  11   1.0000     -19.063010      -518.7309
  12   1.0000     -19.063010      -518.7309
  13   1.0000     -19.063010      -518.7309
  14   1.0000      -5.466805      -148.7593
  15   1.0000      -3.752012      -102.0974
  16   1.0000      -3.752012      -102.0974
  17   1.0000      -3.752012      -102.0974
  18   1.0000      -1.225008       -33.3342
  19   1.0000      -1.225008       -33.3342
  20   1.0000      -1.225008       -33.3342
  21   1.0000      -1.225008       -33.3342
  22   1.0000      -1.225008       -33.3342
  23   1.0000      -0.492676       -13.4064
  24   1.0000      -0.201048        -5.4708
  25   1.0000      -0.201048        -5.4708
  26   1.0000      -0.201048        -5.4708
  27   0.0000      -0.005625        -0.1531
  28   0.0000       0.131594         3.5809
  29   0.0000       0.131594         3.5809
  30   0.0000       0.131594         3.5809
  31   0.0000       0.174442         4.7468

                 SPIN DOWN ORBITALS
  NO   OCC          E(Eh)            E(eV)
   0   1.0000   -1154.581854    -31417.7695
   1   1.0000    -171.079716     -4655.3158
   2   1.0000    -154.154573     -4194.7592
   3   1.0000    -154.154573     -4194.7592
   4   1.0000    -154.154573     -4194.7592
   5   1.0000     -33.352396      -907.5648
   6   1.0000     -27.781274      -755.9669
   7   1.0000     -27.781274      -755.9669
   8   1.0000     -27.781274      -755.9669
   9   1.0000     -19.061010      -518.6765
  10   1.0000     -19.061010      -518.6765
  11   1.0000     -19.061010      -518.6765
  12   1.0000     -19.061010      -518.6765
  13   1.0000     -19.061010      -518.6765
  14   1.0000      -5.462342      -148.6379
  15   1.0000      -3.747204      -101.9666
  16   1.0000      -3.747204      -101.9666
  17   1.0000      -3.747204      -101.9666
  18   1.0000      -1.214837       -33.0574
  19   1.0000      -1.214837       -33.0574
  20   1.0000      -1.214837       -33.0574
  21   1.0000      -1.214837       -33.0574
  22   1.0000      -1.214837       -33.0574
  23   1.0000      -0.425085       -11.5671
  24   0.0000      -0.129668        -3.5285
  25   0.0000      -0.129668        -3.5285
  26   0.0000      -0.129668        -3.5285
  27   0.0000       0.035352         0.9620
  28   0.0000       0.179461         4.8834

MULLIKEN ATOMIC CHARGES AND SPIN POPULATIONS
--------------------------------------------
   0 Sb:   -0.000000    3.000000
Sum of atomic charges         :   -0.0000000

LOEWDIN ATOMIC CHARGES AND SPIN POPULATIONS
-------------------------------------------
   0 Sb:    0.000000    3.000000

FINAL SINGLE POINT ENERGY     -6593.003380654744

DIPOLE MOMENT
-------------
                                X             Y             Z
Electronic contribution:      0.00000       0.00000      -0.00000
Nuclear contribution   :      0.00000       0.00000       0.00000
                        -----------------------------------------
Total Dipole Moment    :      0.00000       0.00000      -0.00000
                        -----------------------------------------
Magnitude (a.u.)       :      0.00000
Magnitude (Debye)      :      0.00000

Rotational constants in cm-1:     0.000000     0.000000     0.000000
Rotational constants in MHz :     0.000000     0.000000     0.000000

                             ****ORCA TERMINATED NORMALLY****
TOTAL RUN TIME: 0 days 0 hours 17 minutes 21 seconds 637 msec
