                         Program Version 5.0.1 -  RELEASE  -
|  1> !uks pbe nori verytightscf soscf notrah defgrid3
|  2>
|  3> %pal
|  4>   nprocs 32
|  5> end
|  6> %coords
|  7>   charge 0
|  8>   mult 4
|  9>   units bohrs
| 10>   coords
| 11>     Sb 0.0 0.0 0.0
| 12>   end
| 13> end
| 14> %basis
| 15>   gtoname "Sb_sapporo-qzp-2012-diffuse.basis"
| 16>   delECP Sb
| 17> end
| 18> %rel
| 19>   method zora
| 20>   modelpot 1, 0, 0, 0
| 21>   c 137.035999084
| 22> endd                         ****END OF INPUT****

CARTESIAN COORDINATES (ANGSTROEM)
---------------------------------
  Sb     0.000000    0.000000    0.000000

 Total Charge           Charge          ....    0
 Multiplicity           Mult            ....    4
 Number of Electrons    NEL             ....   51
 Basis Dimension        Dim             ....  181

ORBITAL ENERGIES
----------------
                 SPIN UP ORBITALS
  NO   OCC          E(Eh)            E(eV)
   0   1.0000   -1149.305009    -31274.1792
   1   1.0000    -169.749387     -4619.1157
   2   1.0000    -154.509804     -4204.4255
   3   1.0000    -154.509804     -4204.4255
   4   1.0000    -154.509804     -4204.4255
   5   1.0000     -32.985596      -897.5837
   6   1.0000     -27.770559      -755.6753
   7   1.0000     -27.770559      -755.6753
   8   1.0000     -27.770559      -755.6753
   9   1.0000     -19.070881      -518.9451
  10   1.0000     -19.070881      -518.9451
  11   1.0000     -19.070881      -518.9451
  12   1.0000     -19.070881      -518.9451
  13   1.0000     -19.070881      -518.9451
  14   1.0000      -5.409625      -147.2034
  15   1.0000      -3.757011      -102.2335
  16   1.0000      -3.757011      -102.2335
  17   1.0000      -3.757011      -102.2335
  18   1.0000      -1.234718       -33.5984
  19   1.0000      -1.234718       -33.5984
  20   1.0000      -1.234718       -33.5984
  21   1.0000      -1.234718       -33.5984
  22   1.0000      -1.234718       -33.5984
  23   1.0000      -0.487747       -13.2723
  24   1.0000      -0.202054        -5.4982
  25   1.0000      -0.202054        -5.4982
  26   1.0000      -0.202054        -5.4982
  27   0.0000      -0.022730        -0.6185
  28   0.0000       0.012360         0.3363
  29   0.0000       0.012360         0.3363
  30   0.0000       0.012360         0.3363
  31   0.0000       0.043188         1.1752

                 SPIN DOWN ORBITALS
  NO   OCC          E(Eh)            E(eV)
   0   1.0000   -1149.302993    -31274.1244
   1   1.0000    -169.748678     -4619.0964
   2   1.0000    -154.508217     -4204.3823
   3   1.0000    -154.508217     -4204.3823
   4   1.0000    -154.508217     -4204.3823
   5   1.0000     -32.983759      -897.5337
   6   1.0000     -27.768389      -755.6163
   7   1.0000     -27.768389      -755.6163
   8   1.0000     -27.768389      -755.6163
   9   1.0000     -19.068878      -518.8906
  10   1.0000     -19.068878      -518.8906
  11   1.0000     -19.068878      -518.8906
  12   1.0000     -19.068878      -518.8906
  13   1.0000     -19.068878      -518.8906
  14   1.0000      -5.404962      -147.0765
  15   1.0000      -3.752185      -102.1021
  16   1.0000      -3.752185      -102.1021
  17   1.0000      -3.752185      -102.1021
  18   1.0000      -1.224643       -33.3242
  19   1.0000      -1.224643       -33.3242
  20   1.0000      -1.224643       -33.3242
  21   1.0000      -1.224643       -33.3242
  22   1.0000      -1.224643       -33.3242
  23   1.0000      -0.419262       -11.4087
  24   0.0000      -0.131028        -3.5654
  25   0.0000      -0.131028        -3.5654
  26   0.0000      -0.131028        -3.5654
  27   0.0000       0.005381         0.1464
  28   0.0000       0.037095         1.0094

MULLIKEN ATOMIC CHARGES AND SPIN POPULATIONS
--------------------------------------------
   0 Sb:   -0.000000    3.000000
Sum of atomic charges         :   -0.0000000

LOEWDIN ATOMIC CHARGES AND SPIN POPULATIONS
-------------------------------------------
   0 Sb:   -0.000000    3.000000

FINAL SINGLE POINT ENERGY     -6565.412837617996

DIPOLE MOMENT
-------------
                                X             Y             Z
Electronic contribution:     -0.00000      -0.00000      -0.00000
Nuclear contribution   :      0.00000       0.00000       0.00000
                        -----------------------------------------
Total Dipole Moment    :     -0.00000      -0.00000      -0.00000
                        -----------------------------------------
Magnitude (a.u.)       :      0.00000
Magnitude (Debye)      :      0.00000

Rotational constants in cm-1:     0.000000     0.000000     0.000000
Rotational constants in MHz :     0.000000     0.000000     0.000000

                             ****ORCA TERMINATED NORMALLY****
TOTAL RUN TIME: 0 days 0 hours 0 minutes 59 seconds 143 msec
