                         Program Version 5.0.1 -  RELEASE  -
|  1> !uks pbe nori verytightscf soscf notrah defgrid3
|  2>
|  3> %pal
|  4>   nprocs 32
|  5> end
|  6> %coords
|  7>   charge 0
|  8>   mult 4
|  9>   units bohrs
| 10>   coords
| 11>     Sb 0.0 0.0 0.0
| 12>   end
| 13> end
| 14> %basis
| 15>   gtoname "Sb_sarc-zora-tzvpp.basis"
| 16>   delECP Sb
| 17> end
| 18> %rel
| 19>   method zora
| 20>   modelpot 1, 0, 0, 0
| 21>   c 137.035999084
| 22> endd                         ****END OF INPUT****

CARTESIAN COORDINATES (ANGSTROEM)
---------------------------------
  Sb     0.000000    0.000000    0.000000

 Total Charge           Charge          ....    0
 Multiplicity           Mult            ....    4
 Number of Electrons    NEL             ....   51
 Basis Dimension        Dim             ....   87

ORBITAL ENERGIES
----------------
                 SPIN UP ORBITALS
  NO   OCC          E(Eh)            E(eV)
   0   1.0000   -1160.659453    -31583.1494
   1   1.0000    -171.789935     -4674.6418
   2   1.0000    -154.030661     -4191.3874
   3   1.0000    -154.030661     -4191.3874
   4   1.0000    -154.030661     -4191.3874
   5   1.0000     -33.515870      -912.0132
   6   1.0000     -27.779319      -755.9137
   7   1.0000     -27.779319      -755.9137
   8   1.0000     -27.779319      -755.9137
   9   1.0000     -19.053740      -518.4786
  10   1.0000     -19.053740      -518.4786
  11   1.0000     -19.053740      -518.4786
  12   1.0000     -19.053740      -518.4786
  13   1.0000     -19.053740      -518.4786
  14   1.0000      -5.508164      -149.8848
  15   1.0000      -3.757129      -102.2367
  16   1.0000      -3.757129      -102.2367
  17   1.0000      -3.757129      -102.2367
  18   1.0000      -1.222172       -33.2570
  19   1.0000      -1.222172       -33.2570
  20   1.0000      -1.222172       -33.2570
  21   1.0000      -1.222172       -33.2570
  22   1.0000      -1.222172       -33.2570
  23   1.0000      -0.496484       -13.5100
  24   1.0000      -0.201265        -5.4767
  25   1.0000      -0.201265        -5.4767
  26   1.0000      -0.201265        -5.4767
  27   0.0000       0.022728         0.6185
  28   0.0000       0.022728         0.6185
  29   0.0000       0.022728         0.6185
  30   0.0000       0.042039         1.1439
  31   0.0000       0.230852         6.2818

                 SPIN DOWN ORBITALS
  NO   OCC          E(Eh)            E(eV)
   0   1.0000   -1160.657287    -31583.0904
   1   1.0000    -171.789128     -4674.6198
   2   1.0000    -154.028943     -4191.3406
   3   1.0000    -154.028943     -4191.3406
   4   1.0000    -154.028943     -4191.3406
   5   1.0000     -33.513983      -911.9619
   6   1.0000     -27.777155      -755.8548
   7   1.0000     -27.777155      -755.8548
   8   1.0000     -27.777155      -755.8548
   9   1.0000     -19.051770      -518.4250
  10   1.0000     -19.051770      -518.4250
  11   1.0000     -19.051770      -518.4250
  12   1.0000     -19.051770      -518.4250
  13   1.0000     -19.051770      -518.4250
  14   1.0000      -5.503715      -149.7637
  15   1.0000      -3.752365      -102.1070
  16   1.0000      -3.752365      -102.1070
  17   1.0000      -3.752365      -102.1070
  18   1.0000      -1.212054       -32.9817
  19   1.0000      -1.212054       -32.9817
  20   1.0000      -1.212054       -32.9817
  21   1.0000      -1.212054       -32.9817
  22   1.0000      -1.212054       -32.9817
  23   1.0000      -0.429241       -11.6802
  24   0.0000      -0.130002        -3.5375
  25   0.0000      -0.130002        -3.5375
  26   0.0000      -0.130002        -3.5375
  27   0.0000       0.056527         1.5382
  28   0.0000       0.056527         1.5382

MULLIKEN ATOMIC CHARGES AND SPIN POPULATIONS
--------------------------------------------
   0 Sb:   -0.000000    3.000000
Sum of atomic charges         :   -0.0000000

LOEWDIN ATOMIC CHARGES AND SPIN POPULATIONS
-------------------------------------------
   0 Sb:    0.000000    3.000000

FINAL SINGLE POINT ENERGY     -6607.659496287913

DIPOLE MOMENT
-------------
                                X             Y             Z
Electronic contribution:      0.00000      -0.00000      -0.00000
Nuclear contribution   :      0.00000       0.00000       0.00000
                        -----------------------------------------
Total Dipole Moment    :      0.00000      -0.00000      -0.00000
                        -----------------------------------------
Magnitude (a.u.)       :      0.00000
Magnitude (Debye)      :      0.00000

Rotational constants in cm-1:     0.000000     0.000000     0.000000
Rotational constants in MHz :     0.000000     0.000000     0.000000

                             ****ORCA TERMINATED NORMALLY****
TOTAL RUN TIME: 0 days 0 hours 1 minutes 6 seconds 869 msec
