                         Program Version 5.0.1 -  RELEASE  -
|  1> !uks pbe nori verytightscf soscf notrah defgrid3
|  2>
|  3> %pal
|  4>   nprocs 32
|  5> end
|  6> %coords
|  7>   charge 0
|  8>   mult 3
|  9>   units bohrs
| 10>   coords
| 11>     Sn 0.0 0.0 0.0
| 12>   end
| 13> end
| 14> %basis
| 15>   gtoname "Sn_ano-rcc-vqzp.basis"
| 16>   delECP Sn
| 17> end
| 18> %rel
| 19>   method zora
| 20>   modelpot 1, 0, 0, 0
| 21>   c 137.035999084
| 22> endd                         ****END OF INPUT****

CARTESIAN COORDINATES (ANGSTROEM)
---------------------------------
  Sn     0.000000    0.000000    0.000000

 Total Charge           Charge          ....    0
 Multiplicity           Mult            ....    3
 Number of Electrons    NEL             ....   50
 Basis Dimension        Dim             ....   93

ORBITAL ENERGIES
----------------
                 SPIN UP ORBITALS
  NO   OCC          E(Eh)            E(eV)
   0   1.0000   -1100.943192    -29958.1873
   1   1.0000    -162.176363     -4413.0432
   2   1.0000    -146.387655     -3983.4106
   3   1.0000    -146.386189     -3983.3707
   4   1.0000    -146.386189     -3983.3707
   5   1.0000     -31.140456      -847.3749
   6   1.0000     -25.890034      -704.5037
   7   1.0000     -25.886161      -704.3983
   8   1.0000     -25.886161      -704.3983
   9   1.0000     -17.514847      -476.6032
  10   1.0000     -17.513977      -476.5796
  11   1.0000     -17.513977      -476.5796
  12   1.0000     -17.511354      -476.5082
  13   1.0000     -17.511354      -476.5082
  14   1.0000      -4.913997      -133.7167
  15   1.0000      -3.318202       -90.2929
  16   1.0000      -3.308453       -90.0276
  17   1.0000      -3.308453       -90.0276
  18   1.0000      -0.953478       -25.9454
  19   1.0000      -0.951057       -25.8796
  20   1.0000      -0.951057       -25.8796
  21   1.0000      -0.942687       -25.6518
  22   1.0000      -0.942687       -25.6518
  23   1.0000      -0.401006       -10.9119
  24   1.0000      -0.152889        -4.1603
  25   1.0000      -0.152889        -4.1603
  26   0.0000      -0.149356        -4.0642
  27   0.0000       0.030512         0.8303
  28   0.0000       0.044359         1.2071
  29   0.0000       0.044359         1.2071
  30   0.0000       0.045992         1.2515

                 SPIN DOWN ORBITALS
  NO   OCC          E(Eh)            E(eV)
   0   1.0000   -1100.942135    -29958.1585
   1   1.0000    -162.176055     -4413.0348
   2   1.0000    -146.387358     -3983.4025
   3   1.0000    -146.385175     -3983.3431
   4   1.0000    -146.385175     -3983.3431
   5   1.0000     -31.139545      -847.3501
   6   1.0000     -25.889647      -704.4931
   7   1.0000     -25.884803      -704.3613
   8   1.0000     -25.884803      -704.3613
   9   1.0000     -17.514359      -476.5899
  10   1.0000     -17.513266      -476.5602
  11   1.0000     -17.513266      -476.5602
  12   1.0000     -17.509959      -476.4702
  13   1.0000     -17.509959      -476.4702
  14   1.0000      -4.911928      -133.6603
  15   1.0000      -3.317581       -90.2760
  16   1.0000      -3.305370       -89.9437
  17   1.0000      -3.305370       -89.9437
  18   1.0000      -0.950287       -25.8586
  19   1.0000      -0.946135       -25.7456
  20   1.0000      -0.946135       -25.7456
  21   1.0000      -0.934337       -25.4246
  22   1.0000      -0.934337       -25.4246
  23   1.0000      -0.360002        -9.7962
  24   0.0000      -0.125363        -3.4113
  25   0.0000      -0.097383        -2.6499
  26   0.0000      -0.097383        -2.6499
  27   0.0000       0.063402         1.7253
  28   0.0000       0.067642         1.8406

MULLIKEN ATOMIC CHARGES AND SPIN POPULATIONS
--------------------------------------------
   0 Sn:   -0.000000    2.000000
Sum of atomic charges         :   -0.0000000

LOEWDIN ATOMIC CHARGES AND SPIN POPULATIONS
-------------------------------------------
   0 Sn:   -0.000000    2.000000

FINAL SINGLE POINT ENERGY     -6273.075107233930

DIPOLE MOMENT
-------------
                                X             Y             Z
Electronic contribution:     -0.00000       0.00000      -0.00000
Nuclear contribution   :      0.00000       0.00000       0.00000
                        -----------------------------------------
Total Dipole Moment    :     -0.00000       0.00000      -0.00000
                        -----------------------------------------
Magnitude (a.u.)       :      0.00000
Magnitude (Debye)      :      0.00000

Rotational constants in cm-1:     0.000000     0.000000     0.000000
Rotational constants in MHz :     0.000000     0.000000     0.000000

                             ****ORCA TERMINATED NORMALLY****
TOTAL RUN TIME: 0 days 0 hours 17 minutes 37 seconds 61 msec
