                         Program Version 5.0.1 -  RELEASE  -
|  1> !uks pbe nori verytightscf soscf notrah defgrid3
|  2>
|  3> %pal
|  4>   nprocs 32
|  5> end
|  6> %coords
|  7>   charge 0
|  8>   mult 3
|  9>   units bohrs
| 10>   coords
| 11>     Sn 0.0 0.0 0.0
| 12>   end
| 13> end
| 14> %basis
| 15>   gtoname "Sn_ano-r3.basis"
| 16>   delECP Sn
| 17> end
| 18> %rel
| 19>   method zora
| 20>   modelpot 1, 0, 0, 0
| 21>   c 137.035999084
| 22> endd                         ****END OF INPUT****

CARTESIAN COORDINATES (ANGSTROEM)
---------------------------------
  Sn     0.000000    0.000000    0.000000

 Total Charge           Charge          ....    0
 Multiplicity           Mult            ....    3
 Number of Electrons    NEL             ....   50
 Basis Dimension        Dim             ....  104

ORBITAL ENERGIES
----------------
                 SPIN UP ORBITALS
  NO   OCC          E(Eh)            E(eV)
   0   1.0000   -1103.885317    -30038.2466
   1   1.0000    -162.463908     -4420.8677
   2   1.0000    -146.360919     -3982.6831
   3   1.0000    -146.359456     -3982.6433
   4   1.0000    -146.359456     -3982.6433
   5   1.0000     -31.188263      -848.6758
   6   1.0000     -25.877855      -704.1722
   7   1.0000     -25.874034      -704.0683
   8   1.0000     -25.874034      -704.0683
   9   1.0000     -17.500483      -476.2123
  10   1.0000     -17.499624      -476.1890
  11   1.0000     -17.499624      -476.1890
  12   1.0000     -17.497031      -476.1184
  13   1.0000     -17.497031      -476.1184
  14   1.0000      -4.923441      -133.9736
  15   1.0000      -3.316196       -90.2383
  16   1.0000      -3.306520       -89.9750
  17   1.0000      -3.306520       -89.9750
  18   1.0000      -0.951591       -25.8941
  19   1.0000      -0.949177       -25.8284
  20   1.0000      -0.949177       -25.8284
  21   1.0000      -0.940832       -25.6013
  22   1.0000      -0.940832       -25.6013
  23   1.0000      -0.401008       -10.9120
  24   1.0000      -0.151618        -4.1257
  25   1.0000      -0.151618        -4.1257
  26   0.0000      -0.148045        -4.0285
  27   0.0000      -0.006885        -0.1873
  28   0.0000       0.115823         3.1517
  29   0.0000       0.115823         3.1517
  30   0.0000       0.116187         3.1616

                 SPIN DOWN ORBITALS
  NO   OCC          E(Eh)            E(eV)
   0   1.0000   -1103.884256    -30038.2177
   1   1.0000    -162.463590     -4420.8590
   2   1.0000    -146.360613     -3982.6748
   3   1.0000    -146.358428     -3982.6153
   4   1.0000    -146.358428     -3982.6153
   5   1.0000     -31.187345      -848.6508
   6   1.0000     -25.877466      -704.1616
   7   1.0000     -25.872664      -704.0310
   8   1.0000     -25.872664      -704.0310
   9   1.0000     -17.499990      -476.1989
  10   1.0000     -17.498905      -476.1694
  11   1.0000     -17.498905      -476.1694
  12   1.0000     -17.495621      -476.0800
  13   1.0000     -17.495621      -476.0800
  14   1.0000      -4.921374      -133.9174
  15   1.0000      -3.315561       -90.2210
  16   1.0000      -3.303416       -89.8905
  17   1.0000      -3.303416       -89.8905
  18   1.0000      -0.948389       -25.8070
  19   1.0000      -0.944237       -25.6940
  20   1.0000      -0.944237       -25.6940
  21   1.0000      -0.932459       -25.3735
  22   1.0000      -0.932459       -25.3735
  23   1.0000      -0.359805        -9.7908
  24   0.0000      -0.124088        -3.3766
  25   0.0000      -0.096313        -2.6208
  26   0.0000      -0.096313        -2.6208
  27   0.0000       0.024534         0.6676
  28   0.0000       0.138222         3.7612

MULLIKEN ATOMIC CHARGES AND SPIN POPULATIONS
--------------------------------------------
   0 Sn:   -0.000000    2.000000
Sum of atomic charges         :   -0.0000000

LOEWDIN ATOMIC CHARGES AND SPIN POPULATIONS
-------------------------------------------
   0 Sn:   -0.000000    2.000000

FINAL SINGLE POINT ENERGY     -6279.794812892130

DIPOLE MOMENT
-------------
                                X             Y             Z
Electronic contribution:     -0.00000      -0.00000      -0.00000
Nuclear contribution   :      0.00000       0.00000       0.00000
                        -----------------------------------------
Total Dipole Moment    :     -0.00000      -0.00000      -0.00000
                        -----------------------------------------
Magnitude (a.u.)       :      0.00000
Magnitude (Debye)      :      0.00000

Rotational constants in cm-1:     0.000000     0.000000     0.000000
Rotational constants in MHz :     0.000000     0.000000     0.000000

                             ****ORCA TERMINATED NORMALLY****
TOTAL RUN TIME: 0 days 0 hours 49 minutes 1 seconds 211 msec
