                         Program Version 5.0.1 -  RELEASE  -
|  1> !uks pbe nori verytightscf soscf notrah defgrid3
|  2>
|  3> %pal
|  4>   nprocs 32
|  5> end
|  6> %coords
|  7>   charge 0
|  8>   mult 3
|  9>   units bohrs
| 10>   coords
| 11>     Sn 0.0 0.0 0.0
| 12>   end
| 13> end
| 14> %basis
| 15>   gtoname "Sn_sapporo-qzp-2012-diffuse.basis"
| 16>   delECP Sn
| 17> end
| 18> %rel
| 19>   method zora
| 20>   modelpot 1, 0, 0, 0
| 21>   c 137.035999084
| 22> endd                         ****END OF INPUT****

CARTESIAN COORDINATES (ANGSTROEM)
---------------------------------
  Sn     0.000000    0.000000    0.000000

 Total Charge           Charge          ....    0
 Multiplicity           Mult            ....    3
 Number of Electrons    NEL             ....   50
 Basis Dimension        Dim             ....  181

ORBITAL ENERGIES
----------------
                 SPIN UP ORBITALS
  NO   OCC          E(Eh)            E(eV)
   0   1.0000   -1099.502530    -29918.9849
   1   1.0000    -161.306227     -4389.3656
   2   1.0000    -146.696316     -3991.8097
   3   1.0000    -146.694823     -3991.7691
   4   1.0000    -146.694823     -3991.7691
   5   1.0000     -30.860904      -839.7679
   6   1.0000     -25.865211      -703.8282
   7   1.0000     -25.861428      -703.7252
   8   1.0000     -25.861428      -703.7252
   9   1.0000     -17.502335      -476.2628
  10   1.0000     -17.501482      -476.2395
  11   1.0000     -17.501482      -476.2395
  12   1.0000     -17.498907      -476.1695
  13   1.0000     -17.498907      -476.1695
  14   1.0000      -4.874413      -132.6395
  15   1.0000      -3.320860       -90.3652
  16   1.0000      -3.311177       -90.1017
  17   1.0000      -3.311177       -90.1017
  18   1.0000      -0.959407       -26.1068
  19   1.0000      -0.956978       -26.0407
  20   1.0000      -0.956978       -26.0407
  21   1.0000      -0.948608       -25.8129
  22   1.0000      -0.948608       -25.8129
  23   1.0000      -0.397114       -10.8060
  24   1.0000      -0.152606        -4.1526
  25   1.0000      -0.152606        -4.1526
  26   0.0000      -0.149076        -4.0566
  27   0.0000      -0.020454        -0.5566
  28   0.0000       0.009075         0.2469
  29   0.0000       0.009075         0.2469
  30   0.0000       0.011122         0.3026

                 SPIN DOWN ORBITALS
  NO   OCC          E(Eh)            E(eV)
   0   1.0000   -1099.501503    -29918.9569
   1   1.0000    -161.305969     -4389.3586
   2   1.0000    -146.696038     -3991.8021
   3   1.0000    -146.693856     -3991.7428
   4   1.0000    -146.693856     -3991.7428
   5   1.0000     -30.860006      -839.7435
   6   1.0000     -25.864829      -703.8178
   7   1.0000     -25.860034      -703.6873
   8   1.0000     -25.860034      -703.6873
   9   1.0000     -17.501854      -476.2496
  10   1.0000     -17.500773      -476.2202
  11   1.0000     -17.500773      -476.2202
  12   1.0000     -17.497493      -476.1310
  13   1.0000     -17.497493      -476.1310
  14   1.0000      -4.872228      -132.5801
  15   1.0000      -3.320224       -90.3479
  16   1.0000      -3.308045       -90.0165
  17   1.0000      -3.308045       -90.0165
  18   1.0000      -0.956229       -26.0203
  19   1.0000      -0.952092       -25.9077
  20   1.0000      -0.952092       -25.9077
  21   1.0000      -0.940338       -25.5879
  22   1.0000      -0.940338       -25.5879
  23   1.0000      -0.355527        -9.6744
  24   0.0000      -0.125544        -3.4162
  25   0.0000      -0.097622        -2.6564
  26   0.0000      -0.097622        -2.6564
  27   0.0000       0.002175         0.0592
  28   0.0000       0.026544         0.7223

MULLIKEN ATOMIC CHARGES AND SPIN POPULATIONS
--------------------------------------------
   0 Sn:    0.000000    2.000000
Sum of atomic charges         :    0.0000000

LOEWDIN ATOMIC CHARGES AND SPIN POPULATIONS
-------------------------------------------
   0 Sn:    0.000000    2.000000

FINAL SINGLE POINT ENERGY     -6255.536351210791

DIPOLE MOMENT
-------------
                                X             Y             Z
Electronic contribution:     -0.00000      -0.00000       0.00000
Nuclear contribution   :      0.00000       0.00000       0.00000
                        -----------------------------------------
Total Dipole Moment    :     -0.00000      -0.00000       0.00000
                        -----------------------------------------
Magnitude (a.u.)       :      0.00000
Magnitude (Debye)      :      0.00000

Rotational constants in cm-1:     0.000000     0.000000     0.000000
Rotational constants in MHz :     0.000000     0.000000     0.000000

                             ****ORCA TERMINATED NORMALLY****
TOTAL RUN TIME: 0 days 0 hours 0 minutes 35 seconds 312 msec
