                         Program Version 5.0.1 -  RELEASE  -
|  1> !uks pbe nori verytightscf soscf notrah defgrid3
|  2>
|  3> %pal
|  4>   nprocs 32
|  5> end
|  6> %coords
|  7>   charge 0
|  8>   mult 3
|  9>   units bohrs
| 10>   coords
| 11>     Sn 0.0 0.0 0.0
| 12>   end
| 13> end
| 14> %basis
| 15>   gtoname "Sn_ugbs.basis"
| 16>   delECP Sn
| 17> end
| 18> %rel
| 19>   method zora
| 20>   modelpot 1, 0, 0, 0
| 21>   c 137.035999084
| 22> endd                         ****END OF INPUT****

CARTESIAN COORDINATES (ANGSTROEM)
---------------------------------
  Sn     0.000000    0.000000    0.000000

 Total Charge           Charge          ....    0
 Multiplicity           Mult            ....    3
 Number of Electrons    NEL             ....   50
 Basis Dimension        Dim             ....  176

ORBITAL ENERGIES
----------------
                 SPIN UP ORBITALS
  NO   OCC          E(Eh)            E(eV)
   0   1.0000   -1109.310033    -30185.8606
   1   1.0000    -162.972275     -4434.7011
   2   1.0000    -146.097075     -3975.5035
   3   1.0000    -146.095493     -3975.4605
   4   1.0000    -146.095493     -3975.4605
   5   1.0000     -31.291003      -851.4715
   6   1.0000     -25.834176      -702.9837
   7   1.0000     -25.829396      -702.8536
   8   1.0000     -25.829396      -702.8536
   9   1.0000     -17.451766      -474.8867
  10   1.0000     -17.450706      -474.8579
  11   1.0000     -17.450706      -474.8579
  12   1.0000     -17.447507      -474.7708
  13   1.0000     -17.447507      -474.7708
  14   1.0000      -4.950224      -134.7025
  15   1.0000      -3.315781       -90.2270
  16   1.0000      -3.303412       -89.8904
  17   1.0000      -3.303412       -89.8904
  18   1.0000      -0.951011       -25.8783
  19   1.0000      -0.947947       -25.7949
  20   1.0000      -0.947947       -25.7949
  21   1.0000      -0.937774       -25.5181
  22   1.0000      -0.937774       -25.5181
  23   1.0000      -0.403419       -10.9776
  24   1.0000      -0.151364        -4.1188
  25   1.0000      -0.151364        -4.1188
  26   0.0000      -0.148534        -4.0418
  27   0.0000      -0.003748        -0.1020
  28   0.0000       0.044300         1.2055
  29   0.0000       0.044300         1.2055
  30   0.0000       0.046038         1.2527

                 SPIN DOWN ORBITALS
  NO   OCC          E(Eh)            E(eV)
   0   1.0000   -1109.308945    -30185.8310
   1   1.0000    -162.971998     -4434.6935
   2   1.0000    -146.096790     -3975.4958
   3   1.0000    -146.094466     -3975.4325
   4   1.0000    -146.094466     -3975.4325
   5   1.0000     -31.290099      -851.4469
   6   1.0000     -25.833797      -702.9734
   7   1.0000     -25.828032      -702.8165
   8   1.0000     -25.828032      -702.8165
   9   1.0000     -17.451298      -474.8740
  10   1.0000     -17.450011      -474.8389
  11   1.0000     -17.450011      -474.8389
  12   1.0000     -17.446119      -474.7330
  13   1.0000     -17.446119      -474.7330
  14   1.0000      -4.948127      -134.6454
  15   1.0000      -3.315059       -90.2073
  16   1.0000      -3.300350       -89.8071
  17   1.0000      -3.300350       -89.8071
  18   1.0000      -0.947710       -25.7885
  19   1.0000      -0.943047       -25.6616
  20   1.0000      -0.943047       -25.6616
  21   1.0000      -0.929596       -25.2956
  22   1.0000      -0.929596       -25.2956
  23   1.0000      -0.362375        -9.8607
  24   0.0000      -0.123845        -3.3700
  25   0.0000      -0.095755        -2.6056
  26   0.0000      -0.095755        -2.6056
  27   0.0000       0.028961         0.7881
  28   0.0000       0.070826         1.9273

MULLIKEN ATOMIC CHARGES AND SPIN POPULATIONS
--------------------------------------------
   0 Sn:   -0.000000    2.000000
Sum of atomic charges         :   -0.0000000

LOEWDIN ATOMIC CHARGES AND SPIN POPULATIONS
-------------------------------------------
   0 Sn:   -0.000000    2.000000

FINAL SINGLE POINT ENERGY     -6293.606966161829

DIPOLE MOMENT
-------------
                                X             Y             Z
Electronic contribution:     -0.00000      -0.00000       0.00000
Nuclear contribution   :      0.00000       0.00000       0.00000
                        -----------------------------------------
Total Dipole Moment    :     -0.00000      -0.00000       0.00000
                        -----------------------------------------
Magnitude (a.u.)       :      0.00000
Magnitude (Debye)      :      0.00000

Rotational constants in cm-1:     0.000000     0.000000     0.000000
Rotational constants in MHz :     0.000000     0.000000     0.000000

                             ****ORCA TERMINATED NORMALLY****
TOTAL RUN TIME: 0 days 0 hours 0 minutes 34 seconds 10 msec
