                         Program Version 5.0.1 -  RELEASE  -
|  1> !uks pbe nori verytightscf soscf notrah defgrid3
|  2>
|  3> %pal
|  4>   nprocs 32
|  5> end
|  6> %coords
|  7>   charge 0
|  8>   mult 1
|  9>   units bohrs
| 10>   coords
| 11>     Sr 0.0 0.0 0.0
| 12>   end
| 13> end
| 14> %basis
| 15>   gtoname "Sr_ano-rcc-vqzp.basis"
| 16>   delECP Sr
| 17> end
| 18> %rel
| 19>   method zora
| 20>   modelpot 1, 0, 0, 0
| 21>   c 137.035999084
| 22> endd                         ****END OF INPUT****

CARTESIAN COORDINATES (ANGSTROEM)
---------------------------------
  Sr     0.000000    0.000000    0.000000

 Total Charge           Charge          ....    0
 Multiplicity           Mult            ....    1
 Number of Electrons    NEL             ....   38
 Basis Dimension        Dim             ....   72

ORBITAL ENERGIES
----------------
                 SPIN UP ORBITALS
  NO   OCC          E(Eh)            E(eV)
   0   1.0000    -596.522294    -16232.1968
   1   1.0000     -79.724658     -2169.4182
   2   1.0000     -71.086340     -1934.3577
   3   1.0000     -71.086340     -1934.3577
   4   1.0000     -71.086340     -1934.3577
   5   1.0000     -12.295658      -334.5819
   6   1.0000      -9.471333      -257.7281
   7   1.0000      -9.471333      -257.7281
   8   1.0000      -9.471333      -257.7281
   9   1.0000      -4.731536      -128.7516
  10   1.0000      -4.731536      -128.7516
  11   1.0000      -4.731536      -128.7516
  12   1.0000      -4.731536      -128.7516
  13   1.0000      -4.731536      -128.7516
  14   1.0000      -1.502723       -40.8912
  15   1.0000      -0.841678       -22.9032
  16   1.0000      -0.841678       -22.9032
  17   1.0000      -0.841678       -22.9032
  18   1.0000      -0.129532        -3.5247
  19   0.0000      -0.046957        -1.2778
  20   0.0000      -0.046957        -1.2778
  21   0.0000      -0.046957        -1.2778
  22   0.0000      -0.045491        -1.2379
  23   0.0000      -0.045491        -1.2379

                 SPIN DOWN ORBITALS
  NO   OCC          E(Eh)            E(eV)
   0   1.0000    -596.522294    -16232.1968
   1   1.0000     -79.724658     -2169.4182
   2   1.0000     -71.086340     -1934.3577
   3   1.0000     -71.086340     -1934.3577
   4   1.0000     -71.086340     -1934.3577
   5   1.0000     -12.295658      -334.5819
   6   1.0000      -9.471333      -257.7281
   7   1.0000      -9.471333      -257.7281
   8   1.0000      -9.471333      -257.7281
   9   1.0000      -4.731536      -128.7516
  10   1.0000      -4.731536      -128.7516
  11   1.0000      -4.731536      -128.7516
  12   1.0000      -4.731536      -128.7516
  13   1.0000      -4.731536      -128.7516
  14   1.0000      -1.502723       -40.8912
  15   1.0000      -0.841678       -22.9032
  16   1.0000      -0.841678       -22.9032
  17   1.0000      -0.841678       -22.9032
  18   1.0000      -0.129532        -3.5247
  19   0.0000      -0.046957        -1.2778
  20   0.0000      -0.046957        -1.2778
  21   0.0000      -0.046957        -1.2778
  22   0.0000      -0.045491        -1.2379
  23   0.0000      -0.045491        -1.2379

MULLIKEN ATOMIC CHARGES AND SPIN POPULATIONS
--------------------------------------------
   0 Sr:    0.000000    0.000000
Sum of atomic charges         :    0.0000000

LOEWDIN ATOMIC CHARGES AND SPIN POPULATIONS
-------------------------------------------
   0 Sr:    0.000000    0.000000

FINAL SINGLE POINT ENERGY     -3209.177754641228

DIPOLE MOMENT
-------------
                                X             Y             Z
Electronic contribution:     -0.00000      -0.00000      -0.00000
Nuclear contribution   :      0.00000       0.00000       0.00000
                        -----------------------------------------
Total Dipole Moment    :     -0.00000      -0.00000      -0.00000
                        -----------------------------------------
Magnitude (a.u.)       :      0.00000
Magnitude (Debye)      :      0.00000

Rotational constants in cm-1:     0.000000     0.000000     0.000000
Rotational constants in MHz :     0.000000     0.000000     0.000000

                             ****ORCA TERMINATED NORMALLY****
TOTAL RUN TIME: 0 days 0 hours 5 minutes 40 seconds 348 msec
