                         Program Version 5.0.1 -  RELEASE  -
|  1> !uks pbe nori verytightscf soscf notrah defgrid3
|  2>
|  3> %pal
|  4>   nprocs 32
|  5> end
|  6> %coords
|  7>   charge 0
|  8>   mult 1
|  9>   units bohrs
| 10>   coords
| 11>     Sr 0.0 0.0 0.0
| 12>   end
| 13> end
| 14> %basis
| 15>   gtoname "Sr_ano-r3.basis"
| 16>   delECP Sr
| 17> end
| 18> %rel
| 19>   method zora
| 20>   modelpot 1, 0, 0, 0
| 21>   c 137.035999084
| 22> endd                         ****END OF INPUT****

CARTESIAN COORDINATES (ANGSTROEM)
---------------------------------
  Sr     0.000000    0.000000    0.000000

 Total Charge           Charge          ....    0
 Multiplicity           Mult            ....    1
 Number of Electrons    NEL             ....   38
 Basis Dimension        Dim             ....   90

ORBITAL ENERGIES
----------------
                 SPIN UP ORBITALS
  NO   OCC          E(Eh)            E(eV)
   0   1.0000    -597.592294    -16261.3130
   1   1.0000     -79.834027     -2172.3943
   2   1.0000     -71.088695     -1934.4217
   3   1.0000     -71.088695     -1934.4217
   4   1.0000     -71.088695     -1934.4217
   5   1.0000     -12.314337      -335.0901
   6   1.0000      -9.472232      -257.7525
   7   1.0000      -9.472232      -257.7525
   8   1.0000      -9.472232      -257.7525
   9   1.0000      -4.732597      -128.7805
  10   1.0000      -4.732597      -128.7805
  11   1.0000      -4.732597      -128.7805
  12   1.0000      -4.732597      -128.7805
  13   1.0000      -4.732597      -128.7805
  14   1.0000      -1.505400       -40.9640
  15   1.0000      -0.841932       -22.9101
  16   1.0000      -0.841932       -22.9101
  17   1.0000      -0.841932       -22.9101
  18   1.0000      -0.130004        -3.5376
  19   0.0000      -0.042996        -1.1700
  20   0.0000      -0.042996        -1.1700
  21   0.0000      -0.042996        -1.1700
  22   0.0000      -0.042996        -1.1700
  23   0.0000      -0.042996        -1.1700

                 SPIN DOWN ORBITALS
  NO   OCC          E(Eh)            E(eV)
   0   1.0000    -597.592294    -16261.3130
   1   1.0000     -79.834027     -2172.3943
   2   1.0000     -71.088695     -1934.4217
   3   1.0000     -71.088695     -1934.4217
   4   1.0000     -71.088695     -1934.4217
   5   1.0000     -12.314337      -335.0901
   6   1.0000      -9.472232      -257.7525
   7   1.0000      -9.472232      -257.7525
   8   1.0000      -9.472232      -257.7525
   9   1.0000      -4.732597      -128.7805
  10   1.0000      -4.732597      -128.7805
  11   1.0000      -4.732597      -128.7805
  12   1.0000      -4.732597      -128.7805
  13   1.0000      -4.732597      -128.7805
  14   1.0000      -1.505400       -40.9640
  15   1.0000      -0.841932       -22.9101
  16   1.0000      -0.841932       -22.9101
  17   1.0000      -0.841932       -22.9101
  18   1.0000      -0.130004        -3.5376
  19   0.0000      -0.042996        -1.1700
  20   0.0000      -0.042996        -1.1700
  21   0.0000      -0.042996        -1.1700
  22   0.0000      -0.042996        -1.1700
  23   0.0000      -0.042996        -1.1700

MULLIKEN ATOMIC CHARGES AND SPIN POPULATIONS
--------------------------------------------
   0 Sr:    0.000000    0.000000
Sum of atomic charges         :    0.0000000

LOEWDIN ATOMIC CHARGES AND SPIN POPULATIONS
-------------------------------------------
   0 Sr:   -0.000000    0.000000

FINAL SINGLE POINT ENERGY     -3211.553152686812

DIPOLE MOMENT
-------------
                                X             Y             Z
Electronic contribution:     -0.00000       0.00000       0.00000
Nuclear contribution   :      0.00000       0.00000       0.00000
                        -----------------------------------------
Total Dipole Moment    :     -0.00000       0.00000       0.00000
                        -----------------------------------------
Magnitude (a.u.)       :      0.00000
Magnitude (Debye)      :      0.00000

Rotational constants in cm-1:     0.000000     0.000000     0.000000
Rotational constants in MHz :     0.000000     0.000000     0.000000

                             ****ORCA TERMINATED NORMALLY****
TOTAL RUN TIME: 0 days 0 hours 5 minutes 19 seconds 422 msec
