                         Program Version 5.0.1 -  RELEASE  -
|  1> !uks pbe nori verytightscf soscf notrah defgrid3
|  2>
|  3> %pal
|  4>   nprocs 32
|  5> end
|  6> %coords
|  7>   charge 0
|  8>   mult 1
|  9>   units bohrs
| 10>   coords
| 11>     Sr 0.0 0.0 0.0
| 12>   end
| 13> end
| 14> %basis
| 15>   gtoname "Sr_ugbs.basis"
| 16>   delECP Sr
| 17> end
| 18> %rel
| 19>   method zora
| 20>   modelpot 1, 0, 0, 0
| 21>   c 137.035999084
| 22> endd                         ****END OF INPUT****

CARTESIAN COORDINATES (ANGSTROEM)
---------------------------------
  Sr     0.000000    0.000000    0.000000

 Total Charge           Charge          ....    0
 Multiplicity           Mult            ....    1
 Number of Electrons    NEL             ....   38
 Basis Dimension        Dim             ....  163

ORBITAL ENERGIES
----------------
                 SPIN UP ORBITALS
  NO   OCC          E(Eh)            E(eV)
   0   1.0000    -599.141948    -16303.4813
   1   1.0000     -79.891876     -2173.9685
   2   1.0000     -70.917690     -1929.7685
   3   1.0000     -70.917690     -1929.7685
   4   1.0000     -70.917690     -1929.7685
   5   1.0000     -12.322887      -335.3228
   6   1.0000      -9.445108      -257.0144
   7   1.0000      -9.445108      -257.0144
   8   1.0000      -9.445108      -257.0144
   9   1.0000      -4.705263      -128.0367
  10   1.0000      -4.705263      -128.0367
  11   1.0000      -4.705263      -128.0367
  12   1.0000      -4.705263      -128.0367
  13   1.0000      -4.705263      -128.0367
  14   1.0000      -1.508063       -41.0365
  15   1.0000      -0.839720       -22.8499
  16   1.0000      -0.839720       -22.8499
  17   1.0000      -0.839720       -22.8499
  18   1.0000      -0.129802        -3.5321
  19   0.0000      -0.023271        -0.6332
  20   0.0000      -0.023271        -0.6332
  21   0.0000      -0.023271        -0.6332
  22   0.0000       0.010357         0.2818
  23   0.0000       0.027450         0.7470

                 SPIN DOWN ORBITALS
  NO   OCC          E(Eh)            E(eV)
   0   1.0000    -599.141948    -16303.4813
   1   1.0000     -79.891876     -2173.9685
   2   1.0000     -70.917690     -1929.7685
   3   1.0000     -70.917690     -1929.7685
   4   1.0000     -70.917690     -1929.7685
   5   1.0000     -12.322887      -335.3228
   6   1.0000      -9.445108      -257.0144
   7   1.0000      -9.445108      -257.0144
   8   1.0000      -9.445108      -257.0144
   9   1.0000      -4.705263      -128.0367
  10   1.0000      -4.705263      -128.0367
  11   1.0000      -4.705263      -128.0367
  12   1.0000      -4.705263      -128.0367
  13   1.0000      -4.705263      -128.0367
  14   1.0000      -1.508063       -41.0365
  15   1.0000      -0.839720       -22.8499
  16   1.0000      -0.839720       -22.8499
  17   1.0000      -0.839720       -22.8499
  18   1.0000      -0.129802        -3.5321
  19   0.0000      -0.023271        -0.6332
  20   0.0000      -0.023271        -0.6332
  21   0.0000      -0.023271        -0.6332
  22   0.0000       0.010357         0.2818
  23   0.0000       0.027450         0.7470

MULLIKEN ATOMIC CHARGES AND SPIN POPULATIONS
--------------------------------------------
   0 Sr:    0.000000    0.000000
Sum of atomic charges         :    0.0000000

LOEWDIN ATOMIC CHARGES AND SPIN POPULATIONS
-------------------------------------------
   0 Sr:    0.000000    0.000000

FINAL SINGLE POINT ENERGY     -3215.775118214542

DIPOLE MOMENT
-------------
                                X             Y             Z
Electronic contribution:      0.00000       0.00000      -0.00000
Nuclear contribution   :      0.00000       0.00000       0.00000
                        -----------------------------------------
Total Dipole Moment    :      0.00000       0.00000      -0.00000
                        -----------------------------------------
Magnitude (a.u.)       :      0.00000
Magnitude (Debye)      :      0.00000

Rotational constants in cm-1:     0.000000     0.000000     0.000000
Rotational constants in MHz :     0.000000     0.000000     0.000000

                             ****ORCA TERMINATED NORMALLY****
TOTAL RUN TIME: 0 days 0 hours 0 minutes 41 seconds 818 msec
