                         Program Version 5.0.3 -  RELEASE  -
|  1> !uks pbe nori verytightscf nososcf defgrid3
|  2>
|  3> %pal
|  4>   nprocs 16
|  5> end
|  6> %coords
|  7>   charge 0
|  8>   mult 6
|  9>   units bohrs
| 10>   coords
| 11>     Tc 0.0 0.0 0.0
| 12>   end
| 13> end
| 14> %scf
| 15>   maxiter 400
| 16> end
| 17> %basis
| 18>   gtoname "Tc_ano-rcc-vqzp.basis"
| 19>   delECP Tc
| 20> end
| 21> %rel
| 22>   method zora
| 23>   modelpot 1, 0, 0, 0
| 24>   c 137.035999084
| 25> end
| 26>
| 27>                          ****END OF INPUT****

CARTESIAN COORDINATES (ANGSTROEM)
---------------------------------
  Tc     0.000000    0.000000    0.000000

 Total Charge           Charge          ....    0
 Multiplicity           Mult            ....    6
 Number of Electrons    NEL             ....   43
 Basis Dimension        Dim             ....  104

ORBITAL ENERGIES
----------------
                 SPIN UP ORBITALS
  NO   OCC          E(Eh)            E(eV)
   0   1.0000    -784.986801    -21360.5768
   1   1.0000    -109.964330     -2992.2815
   2   1.0000     -98.821273     -2689.0635
   3   1.0000     -98.821273     -2689.0635
   4   1.0000     -98.816712     -2688.9394
   5   1.0000     -19.002262      -517.0778
   6   1.0000     -15.289623      -416.0518
   7   1.0000     -15.289622      -416.0518
   8   1.0000     -15.284467      -415.9115
   9   1.0000      -9.137908      -248.6551
  10   1.0000      -9.137908      -248.6551
  11   1.0000      -9.136305      -248.6115
  12   1.0000      -9.136304      -248.6115
  13   1.0000      -9.130435      -248.4518
  14   1.0000      -2.646651       -72.0190
  15   1.0000      -1.643178       -44.7131
  16   1.0000      -1.643177       -44.7131
  17   1.0000      -1.611331       -43.8466
  18   1.0000      -0.240604        -6.5472
  19   1.0000      -0.240604        -6.5472
  20   1.0000      -0.220916        -6.0114
  21   1.0000      -0.220916        -6.0114
  22   1.0000      -0.206519        -5.6197
  23   1.0000      -0.171579        -4.6689
  24   0.0000      -0.052465        -1.4276
  25   0.0000      -0.052465        -1.4276
  26   0.0000      -0.035315        -0.9610
  27   0.0000       0.033205         0.9035
  28   0.0000       0.126075         3.4307

                 SPIN DOWN ORBITALS
  NO   OCC          E(Eh)            E(eV)
   0   1.0000    -784.986753    -21360.5755
   1   1.0000    -109.946941     -2991.8084
   2   1.0000     -98.807439     -2688.6871
   3   1.0000     -98.807439     -2688.6871
   4   1.0000     -98.805440     -2688.6327
   5   1.0000     -18.992491      -516.8120
   6   1.0000     -15.278772      -415.7565
   7   1.0000     -15.278771      -415.7565
   8   1.0000     -15.273182      -415.6044
   9   1.0000      -9.121765      -248.2159
  10   1.0000      -9.121765      -248.2159
  11   1.0000      -9.117567      -248.1016
  12   1.0000      -9.117567      -248.1016
  13   1.0000      -9.116937      -248.0845
  14   1.0000      -2.549712       -69.3812
  15   1.0000      -1.531410       -41.6718
  16   1.0000      -1.531410       -41.6718
  17   1.0000      -1.517352       -41.2893
  18   1.0000      -0.128819        -3.5054
  19   0.0000      -0.116425        -3.1681
  20   0.0000      -0.116414        -3.1678
  21   0.0000      -0.111781        -3.0417
  22   0.0000      -0.105659        -2.8751
  23   0.0000      -0.105659        -2.8751

MULLIKEN ATOMIC CHARGES AND SPIN POPULATIONS
--------------------------------------------
   0 Tc:   -0.000000    5.000000
Sum of atomic charges         :   -0.0000000

LOEWDIN ATOMIC CHARGES AND SPIN POPULATIONS
-------------------------------------------
   0 Tc:    0.000000    5.000000

FINAL SINGLE POINT ENERGY     -4335.932757133431

DIPOLE MOMENT
-------------
                                X             Y             Z
Electronic contribution:      0.00000       0.00000      -0.00000
Nuclear contribution   :      0.00000       0.00000       0.00000
                        -----------------------------------------
Total Dipole Moment    :      0.00000       0.00000      -0.00000
                        -----------------------------------------
Magnitude (a.u.)       :      0.00000
Magnitude (Debye)      :      0.00000

Rotational constants in cm-1:     0.000000     0.000000     0.000000
Rotational constants in MHz :     0.000000     0.000000     0.000000

                             ****ORCA TERMINATED NORMALLY****
TOTAL RUN TIME: 0 days 0 hours 0 minutes 37 seconds 152 msec
