                         Program Version 5.0.3 -  RELEASE  -
|  1> !uks pbe nori verytightscf nososcf notrah defgrid3
|  2>
|  3> %pal
|  4>   nprocs 16
|  5> end
|  6> %coords
|  7>   charge 0
|  8>   mult 6
|  9>   units bohrs
| 10>   coords
| 11>     Tc 0.0 0.0 0.0
| 12>   end
| 13> end
| 14> %scf
| 15>   maxiter 400
| 16> end
| 17> %basis
| 18>   gtoname "Tc_sarc-zora-tzvpp.basis"
| 19>   delECP Tc
| 20> end
| 21> %rel
| 22>   method zora
| 23>   modelpot 1, 0, 0, 0
| 24>   c 137.035999084
| 25> end
| 26>
| 27>                          ****END OF INPUT****

CARTESIAN COORDINATES (ANGSTROEM)
---------------------------------
  Tc     0.000000    0.000000    0.000000

 Total Charge           Charge          ....    0
 Multiplicity           Mult            ....    6
 Number of Electrons    NEL             ....   43
 Basis Dimension        Dim             ....   98

ORBITAL ENERGIES
----------------
                 SPIN UP ORBITALS
  NO   OCC          E(Eh)            E(eV)
   0   1.0000    -789.489694    -21483.1068
   1   1.0000    -110.376098     -3003.4863
   2   1.0000     -98.677232     -2685.1440
   3   1.0000     -98.669624     -2684.9370
   4   1.0000     -98.669623     -2684.9370
   5   1.0000     -19.053821      -518.4808
   6   1.0000     -15.248538      -414.9338
   7   1.0000     -15.233372      -414.5211
   8   1.0000     -15.233371      -414.5211
   9   1.0000      -9.089945      -247.3500
  10   1.0000      -9.087356      -247.2795
  11   1.0000      -9.087356      -247.2795
  12   1.0000      -9.079578      -247.0679
  13   1.0000      -9.071811      -246.8565
  14   1.0000      -2.626359       -71.4669
  15   1.0000      -1.621828       -44.1322
  16   1.0000      -1.583345       -43.0850
  17   1.0000      -1.583344       -43.0850
  18   1.0000      -0.210582        -5.7302
  19   1.0000      -0.204550        -5.5661
  20   1.0000      -0.204549        -5.5661
  21   1.0000      -0.190908        -5.1949
  22   1.0000      -0.172567        -4.6958
  23   1.0000      -0.166505        -4.5308
  24   0.0000      -0.048666        -1.3243
  25   0.0000      -0.040478        -1.1015
  26   0.0000      -0.040477        -1.1014
  27   0.0000       0.076998         2.0952
  28   0.0000       0.078834         2.1452

                 SPIN DOWN ORBITALS
  NO   OCC          E(Eh)            E(eV)
   0   1.0000    -789.489501    -21483.1015
   1   1.0000    -110.360648     -3003.0659
   2   1.0000     -98.663723     -2684.7764
   3   1.0000     -98.659063     -2684.6496
   4   1.0000     -98.659063     -2684.6496
   5   1.0000     -19.044648      -518.2312
   6   1.0000     -15.236501      -414.6063
   7   1.0000     -15.223876      -414.2627
   8   1.0000     -15.223876      -414.2627
   9   1.0000      -9.073613      -246.9056
  10   1.0000      -9.070679      -246.8257
  11   1.0000      -9.070679      -246.8257
  12   1.0000      -9.062881      -246.6135
  13   1.0000      -9.061787      -246.5838
  14   1.0000      -2.538998       -69.0897
  15   1.0000      -1.507875       -41.0314
  16   1.0000      -1.496251       -40.7151
  17   1.0000      -1.496251       -40.7151
  18   1.0000      -0.107209        -2.9173
  19   0.0000      -0.104462        -2.8425
  20   0.0000      -0.093839        -2.5535
  21   0.0000      -0.091691        -2.4950
  22   0.0000      -0.091687        -2.4949
  23   0.0000      -0.073536        -2.0010

MULLIKEN ATOMIC CHARGES AND SPIN POPULATIONS
--------------------------------------------
   0 Tc:    0.000000    5.000000
Sum of atomic charges         :    0.0000000

LOEWDIN ATOMIC CHARGES AND SPIN POPULATIONS
-------------------------------------------
   0 Tc:    0.000000    5.000000

FINAL SINGLE POINT ENERGY     -4346.703740469568

DIPOLE MOMENT
-------------
                                X             Y             Z
Electronic contribution:     -0.00000       0.00000       0.00000
Nuclear contribution   :      0.00000       0.00000       0.00000
                        -----------------------------------------
Total Dipole Moment    :     -0.00000       0.00000       0.00000
                        -----------------------------------------
Magnitude (a.u.)       :      0.00000
Magnitude (Debye)      :      0.00000

Rotational constants in cm-1:     0.000000     0.000000     0.000000
Rotational constants in MHz :     0.000000     0.000000     0.000000

                             ****ORCA TERMINATED NORMALLY****
TOTAL RUN TIME: 0 days 0 hours 0 minutes 15 seconds 871 msec
