                         Program Version 5.0.3 -  RELEASE  -
|  1> !uks pbe nori verytightscf nososcf notrah defgrid3
|  2>
|  3> %pal
|  4>   nprocs 16
|  5> end
|  6> %coords
|  7>   charge 0
|  8>   mult 6
|  9>   units bohrs
| 10>   coords
| 11>     Tc 0.0 0.0 0.0
| 12>   end
| 13> end
| 14> %basis
| 15>   gtoname "Tc_sapporo-qzp-2012-diffuse.basis"
| 16>   delECP Tc
| 17> end
| 18> %scf
| 19>   maxiter 400
| 20> end
| 21> %rel
| 22>   method zora
| 23>   modelpot 1, 0, 0, 0
| 24>   c 137.035999084
| 25> end
| 26>
| 27>                          ****END OF INPUT****

CARTESIAN COORDINATES (ANGSTROEM)
---------------------------------
  Tc     0.000000    0.000000    0.000000

 Total Charge           Charge          ....    0
 Multiplicity           Mult            ....    6
 Number of Electrons    NEL             ....   43
 Basis Dimension        Dim             ....  150

ORBITAL ENERGIES
----------------
                 SPIN UP ORBITALS
  NO   OCC          E(Eh)            E(eV)
   0   1.0000    -786.283703    -21395.8673
   1   1.0000    -109.767016     -2986.9123
   2   1.0000     -99.011171     -2694.2309
   3   1.0000     -99.003468     -2694.0213
   4   1.0000     -99.003466     -2694.0213
   5   1.0000     -18.875016      -513.6153
   6   1.0000     -15.258353      -415.2009
   7   1.0000     -15.243245      -414.7898
   8   1.0000     -15.243244      -414.7898
   9   1.0000      -9.093750      -247.4535
  10   1.0000      -9.091188      -247.3838
  11   1.0000      -9.091187      -247.3838
  12   1.0000      -9.083491      -247.1744
  13   1.0000      -9.075651      -246.9610
  14   1.0000      -2.598835       -70.7179
  15   1.0000      -1.623733       -44.1840
  16   1.0000      -1.585500       -43.1437
  17   1.0000      -1.585486       -43.1433
  18   1.0000      -0.212258        -5.7758
  19   1.0000      -0.206620        -5.6224
  20   1.0000      -0.206609        -5.6221
  21   1.0000      -0.193323        -5.2606
  22   1.0000      -0.170839        -4.6488
  23   1.0000      -0.168302        -4.5797
  24   0.0000      -0.051136        -1.3915
  25   0.0000      -0.043429        -1.1818
  26   0.0000      -0.043420        -1.1815
  27   0.0000       0.000973         0.0265
  28   0.0000       0.035068         0.9543

                 SPIN DOWN ORBITALS
  NO   OCC          E(Eh)            E(eV)
   0   1.0000    -786.283523    -21395.8624
   1   1.0000    -109.750931     -2986.4747
   2   1.0000     -98.997518     -2693.8594
   3   1.0000     -98.992793     -2693.7308
   4   1.0000     -98.992792     -2693.7308
   5   1.0000     -18.865807      -513.3647
   6   1.0000     -15.246189      -414.8699
   7   1.0000     -15.233653      -414.5288
   8   1.0000     -15.233652      -414.5287
   9   1.0000      -9.077300      -247.0059
  10   1.0000      -9.074385      -246.9266
  11   1.0000      -9.074384      -246.9265
  12   1.0000      -9.066670      -246.7166
  13   1.0000      -9.065549      -246.6861
  14   1.0000      -2.510758       -68.3212
  15   1.0000      -1.509355       -41.0716
  16   1.0000      -1.498111       -40.7657
  17   1.0000      -1.498102       -40.7654
  18   1.0000      -0.109919        -2.9910
  19   0.0000      -0.104650        -2.8477
  20   0.0000      -0.094976        -2.5844
  21   0.0000      -0.093698        -2.5497
  22   0.0000      -0.093690        -2.5494
  23   0.0000      -0.075595        -2.0570

MULLIKEN ATOMIC CHARGES AND SPIN POPULATIONS
--------------------------------------------
   0 Tc:    0.000000    5.000000
Sum of atomic charges         :    0.0000000

LOEWDIN ATOMIC CHARGES AND SPIN POPULATIONS
-------------------------------------------
   0 Tc:    0.000000    5.000000

FINAL SINGLE POINT ENERGY     -4331.309997586613

DIPOLE MOMENT
-------------
                                X             Y             Z
Electronic contribution:      0.00000       0.00000       0.00000
Nuclear contribution   :      0.00000       0.00000       0.00000
                        -----------------------------------------
Total Dipole Moment    :      0.00000       0.00000       0.00000
                        -----------------------------------------
Magnitude (a.u.)       :      0.00000
Magnitude (Debye)      :      0.00000

Rotational constants in cm-1:     0.000000     0.000000     0.000000
Rotational constants in MHz :     0.000000     0.000000     0.000000

                             ****ORCA TERMINATED NORMALLY****
TOTAL RUN TIME: 0 days 0 hours 0 minutes 37 seconds 665 msec
