                         Program Version 5.0.1 -  RELEASE  -
|  1> !uks pbe nori verytightscf nososcf notrah defgrid3
|  2>
|  3> %pal
|  4>   nprocs 16
|  5> end
|  6> %coords
|  7>   charge 0
|  8>   mult 6
|  9>   units bohrs
| 10>   coords
| 11>     Tc 0.0 0.0 0.0
| 12>   end
| 13> end
| 14> %basis
| 15>   gtoname "Tc_ugbs.basis"
| 16>   delECP Tc
| 17> end
| 18> %rel
| 19>   method zora
| 20>   modelpot 1, 0, 0, 0
| 21>   c 137.035999084
| 22> end
| 23>
| 24>                          ****END OF INPUT****

CARTESIAN COORDINATES (ANGSTROEM)
---------------------------------
  Tc     0.000000    0.000000    0.000000

 Total Charge           Charge          ....    0
 Multiplicity           Mult            ....    6
 Number of Electrons    NEL             ....   43
 Basis Dimension        Dim             ....  183

ORBITAL ENERGIES
----------------
                 SPIN UP ORBITALS
  NO   OCC          E(Eh)            E(eV)
   0   1.0000    -789.484260    -21482.9589
   1   1.0000    -110.354052     -3002.8864
   2   1.0000     -98.644663     -2684.2577
   3   1.0000     -98.641466     -2684.1708
   4   1.0000     -98.638486     -2684.0897
   5   1.0000     -19.082237      -519.2541
   6   1.0000     -15.275585      -415.6698
   7   1.0000     -15.270209      -415.5235
   8   1.0000     -15.259766      -415.2393
   9   1.0000      -9.120809      -248.1898
  10   1.0000      -9.120741      -248.1880
  11   1.0000      -9.114099      -248.0072
  12   1.0000      -9.111603      -247.9393
  13   1.0000      -9.105444      -247.7717
  14   1.0000      -2.671368       -72.6916
  15   1.0000      -1.655004       -45.0350
  16   1.0000      -1.634042       -44.4646
  17   1.0000      -1.631968       -44.4081
  18   1.0000      -0.240461        -6.5433
  19   1.0000      -0.237756        -6.4697
  20   1.0000      -0.230773        -6.2796
  21   1.0000      -0.228873        -6.2279
  22   1.0000      -0.217452        -5.9172
  23   1.0000      -0.183065        -4.9815
  24   0.0000      -0.044138        -1.2011
  25   0.0000      -0.042684        -1.1615
  26   0.0000      -0.032276        -0.8783
  27   0.0000       0.007637         0.2078
  28   0.0000       0.114488         3.1154

                 SPIN DOWN ORBITALS
  NO   OCC          E(Eh)            E(eV)
   0   1.0000    -789.484257    -21482.9588
   1   1.0000    -110.335119     -3002.3712
   2   1.0000     -98.629405     -2683.8426
   3   1.0000     -98.627768     -2683.7980
   4   1.0000     -98.624982     -2683.7222
   5   1.0000     -19.072197      -518.9809
   6   1.0000     -15.263026      -415.3281
   7   1.0000     -15.257855      -415.1873
   8   1.0000     -15.250628      -414.9907
   9   1.0000      -9.101657      -247.6687
  10   1.0000      -9.101164      -247.6553
  11   1.0000      -9.096441      -247.5267
  12   1.0000      -9.092754      -247.4264
  13   1.0000      -9.092523      -247.4201
  14   1.0000      -2.573108       -70.0178
  15   1.0000      -1.538314       -41.8596
  16   1.0000      -1.532215       -41.6937
  17   1.0000      -1.528464       -41.5916
  18   1.0000      -0.134275        -3.6538
  19   0.0000      -0.125479        -3.4144
  20   0.0000      -0.124530        -3.3886
  21   0.0000      -0.118347        -3.2204
  22   0.0000      -0.116371        -3.1666
  23   0.0000      -0.107756        -2.9322

MULLIKEN ATOMIC CHARGES AND SPIN POPULATIONS
--------------------------------------------
   0 Tc:   -0.000000    5.000000
Sum of atomic charges         :   -0.0000000

LOEWDIN ATOMIC CHARGES AND SPIN POPULATIONS
-------------------------------------------
   0 Tc:   -0.000000    5.000000

FINAL SINGLE POINT ENERGY     -4346.946443139351

DIPOLE MOMENT
-------------
                                X             Y             Z
Electronic contribution:     -0.00000      -0.00000       0.00000
Nuclear contribution   :      0.00000       0.00000       0.00000
                        -----------------------------------------
Total Dipole Moment    :     -0.00000      -0.00000       0.00000
                        -----------------------------------------
Magnitude (a.u.)       :      0.00000
Magnitude (Debye)      :      0.00000

Rotational constants in cm-1:     0.000000     0.000000     0.000000
Rotational constants in MHz :     0.000000     0.000000     0.000000

                             ****ORCA TERMINATED NORMALLY****
TOTAL RUN TIME: 0 days 0 hours 0 minutes 38 seconds 114 msec
