                         Program Version 5.0.1 -  RELEASE  -
|  1> !uks pbe nori verytightscf soscf notrah defgrid3
|  2>
|  3> %pal
|  4>   nprocs 32
|  5> end
|  6> %coords
|  7>   charge 0
|  8>   mult 3
|  9>   units bohrs
| 10>   coords
| 11>     Te 0.0 0.0 0.0
| 12>   end
| 13> end
| 14> %basis
| 15>   gtoname "Te_ano-rcc-vqzp.basis"
| 16>   delECP Te
| 17> end
| 18> %rel
| 19>   method zora
| 20>   modelpot 1, 0, 0, 0
| 21>   c 137.035999084
| 22> endd                         ****END OF INPUT****

CARTESIAN COORDINATES (ANGSTROEM)
---------------------------------
  Te     0.000000    0.000000    0.000000

 Total Charge           Charge          ....    0
 Multiplicity           Mult            ....    3
 Number of Electrons    NEL             ....   52
 Basis Dimension        Dim             ....   93

ORBITAL ENERGIES
----------------
                 SPIN UP ORBITALS
  NO   OCC          E(Eh)            E(eV)
   0   1.0000   -1203.546689    -32750.1704
   1   1.0000    -179.675819     -4889.2276
   2   1.0000    -162.224461     -4414.3520
   3   1.0000    -162.224461     -4414.3520
   4   1.0000    -162.221410     -4414.2690
   5   1.0000     -35.566723      -967.8197
   6   1.0000     -29.793134      -810.7124
   7   1.0000     -29.793134      -810.7124
   8   1.0000     -29.786541      -810.5330
   9   1.0000     -20.725151      -563.9600
  10   1.0000     -20.725151      -563.9600
  11   1.0000     -20.720675      -563.8382
  12   1.0000     -20.720675      -563.8382
  13   1.0000     -20.719177      -563.7975
  14   1.0000      -6.034526      -164.2078
  15   1.0000      -4.232128      -115.1621
  16   1.0000      -4.232128      -115.1621
  17   1.0000      -4.217104      -114.7532
  18   1.0000      -1.541320       -41.9414
  19   1.0000      -1.541320       -41.9414
  20   1.0000      -1.527775       -41.5729
  21   1.0000      -1.527775       -41.5729
  22   1.0000      -1.523387       -41.4535
  23   1.0000      -0.572803       -15.5868
  24   1.0000      -0.251672        -6.8483
  25   1.0000      -0.251672        -6.8483
  26   1.0000      -0.216022        -5.8783
  27   0.0000       0.061477         1.6729
  28   0.0000       0.061477         1.6729
  29   0.0000       0.072807         1.9812
  30   0.0000       0.124819         3.3965
  31   0.0000       0.124819         3.3965

                 SPIN DOWN ORBITALS
  NO   OCC          E(Eh)            E(eV)
   0   1.0000   -1203.544946    -32750.1230
   1   1.0000    -179.675077     -4889.2074
   2   1.0000    -162.222632     -4414.3022
   3   1.0000    -162.222632     -4414.3022
   4   1.0000    -162.220747     -4414.2509
   5   1.0000     -35.565150      -967.7769
   6   1.0000     -29.790859      -810.6505
   7   1.0000     -29.790859      -810.6505
   8   1.0000     -29.785730      -810.5109
   9   1.0000     -20.722775      -563.8954
  10   1.0000     -20.722775      -563.8954
  11   1.0000     -20.719322      -563.8014
  12   1.0000     -20.719322      -563.8014
  13   1.0000     -20.718163      -563.7699
  14   1.0000      -6.030690      -164.1034
  15   1.0000      -4.226811      -115.0174
  16   1.0000      -4.226811      -115.0174
  17   1.0000      -4.215499      -114.7096
  18   1.0000      -1.530456       -41.6458
  19   1.0000      -1.530456       -41.6458
  20   1.0000      -1.522018       -41.4162
  21   1.0000      -1.522018       -41.4162
  22   1.0000      -1.518801       -41.3287
  23   1.0000      -0.523983       -14.2583
  24   1.0000      -0.195612        -5.3229
  25   0.0000      -0.186801        -5.0831
  26   0.0000      -0.186801        -5.0831
  27   0.0000       0.079590         2.1658
  28   0.0000       0.088332         2.4036
  29   0.0000       0.088336         2.4037

MULLIKEN ATOMIC CHARGES AND SPIN POPULATIONS
--------------------------------------------
   0 Te:   -0.000000    2.000000
Sum of atomic charges         :   -0.0000000

LOEWDIN ATOMIC CHARGES AND SPIN POPULATIONS
-------------------------------------------
   0 Te:   -0.000000    2.000000

FINAL SINGLE POINT ENERGY     -6908.347251319809

DIPOLE MOMENT
-------------
                                X             Y             Z
Electronic contribution:     -0.00000      -0.00000      -0.00000
Nuclear contribution   :      0.00000       0.00000       0.00000
                        -----------------------------------------
Total Dipole Moment    :     -0.00000      -0.00000      -0.00000
                        -----------------------------------------
Magnitude (a.u.)       :      0.00000
Magnitude (Debye)      :      0.00000

Rotational constants in cm-1:     0.000000     0.000000     0.000000
Rotational constants in MHz :     0.000000     0.000000     0.000000

                             ****ORCA TERMINATED NORMALLY****
TOTAL RUN TIME: 0 days 0 hours 17 minutes 54 seconds 397 msec
