                         Program Version 5.0.1 -  RELEASE  -
|  1> !uks pbe nori verytightscf soscf notrah defgrid3
|  2>
|  3> %pal
|  4>   nprocs 32
|  5> end
|  6> %coords
|  7>   charge 0
|  8>   mult 3
|  9>   units bohrs
| 10>   coords
| 11>     Te 0.0 0.0 0.0
| 12>   end
| 13> end
| 14> %basis
| 15>   gtoname "Te_ano-r3.basis"
| 16>   delECP Te
| 17> end
| 18> %rel
| 19>   method zora
| 20>   modelpot 1, 0, 0, 0
| 21>   c 137.035999084
| 22> endd                         ****END OF INPUT****

CARTESIAN COORDINATES (ANGSTROEM)
---------------------------------
  Te     0.000000    0.000000    0.000000

 Total Charge           Charge          ....    0
 Multiplicity           Mult            ....    3
 Number of Electrons    NEL             ....   52
 Basis Dimension        Dim             ....  120

ORBITAL ENERGIES
----------------
                 SPIN UP ORBITALS
  NO   OCC          E(Eh)            E(eV)
   0   1.0000   -1206.737351    -32836.9927
   1   1.0000    -179.988848     -4897.7455
   2   1.0000    -162.199420     -4413.6706
   3   1.0000    -162.199420     -4413.6706
   4   1.0000    -162.196385     -4413.5880
   5   1.0000     -35.617002      -969.1879
   6   1.0000     -29.779298      -810.3359
   7   1.0000     -29.779298      -810.3359
   8   1.0000     -29.772792      -810.1589
   9   1.0000     -20.708668      -563.5115
  10   1.0000     -20.708668      -563.5115
  11   1.0000     -20.704247      -563.3912
  12   1.0000     -20.704247      -563.3912
  13   1.0000     -20.702764      -563.3509
  14   1.0000      -6.045166      -164.4973
  15   1.0000      -4.230011      -115.1044
  16   1.0000      -4.230011      -115.1044
  17   1.0000      -4.215064      -114.6977
  18   1.0000      -1.539245       -41.8850
  19   1.0000      -1.539245       -41.8850
  20   1.0000      -1.525745       -41.5176
  21   1.0000      -1.525745       -41.5176
  22   1.0000      -1.521374       -41.3987
  23   1.0000      -0.573104       -15.5950
  24   1.0000      -0.250180        -6.8078
  25   1.0000      -0.250180        -6.8078
  26   1.0000      -0.214470        -5.8360
  27   0.0000      -0.000390        -0.0106
  28   0.0000       0.139218         3.7883
  29   0.0000       0.139218         3.7883
  30   0.0000       0.156223         4.2510
  31   0.0000       0.175195         4.7673

                 SPIN DOWN ORBITALS
  NO   OCC          E(Eh)            E(eV)
   0   1.0000   -1206.735583    -32836.9446
   1   1.0000    -179.988075     -4897.7245
   2   1.0000    -162.197553     -4413.6198
   3   1.0000    -162.197553     -4413.6198
   4   1.0000    -162.195691     -4413.5691
   5   1.0000     -35.615402      -969.1444
   6   1.0000     -29.776987      -810.2730
   7   1.0000     -29.776987      -810.2730
   8   1.0000     -29.771962      -810.1363
   9   1.0000     -20.706250      -563.4457
  10   1.0000     -20.706250      -563.4457
  11   1.0000     -20.702863      -563.3535
  12   1.0000     -20.702863      -563.3535
  13   1.0000     -20.701727      -563.3226
  14   1.0000      -6.041326      -164.3928
  15   1.0000      -4.224693      -114.9597
  16   1.0000      -4.224693      -114.9597
  17   1.0000      -4.213481      -114.6547
  18   1.0000      -1.528417       -41.5903
  19   1.0000      -1.528417       -41.5903
  20   1.0000      -1.520025       -41.3620
  21   1.0000      -1.520025       -41.3620
  22   1.0000      -1.516825       -41.2749
  23   1.0000      -0.524139       -14.2625
  24   1.0000      -0.194019        -5.2795
  25   0.0000      -0.185219        -5.0401
  26   0.0000      -0.185219        -5.0401
  27   0.0000       0.019586         0.5330
  28   0.0000       0.165895         4.5142
  29   0.0000       0.173708         4.7268

MULLIKEN ATOMIC CHARGES AND SPIN POPULATIONS
--------------------------------------------
   0 Te:    0.000000    2.000000
Sum of atomic charges         :    0.0000000

LOEWDIN ATOMIC CHARGES AND SPIN POPULATIONS
-------------------------------------------
   0 Te:   -0.000000    2.000000

FINAL SINGLE POINT ENERGY     -6915.639513555707

DIPOLE MOMENT
-------------
                                X             Y             Z
Electronic contribution:     -0.00000      -0.00000       0.00000
Nuclear contribution   :      0.00000       0.00000       0.00000
                        -----------------------------------------
Total Dipole Moment    :     -0.00000      -0.00000       0.00000
                        -----------------------------------------
Magnitude (a.u.)       :      0.00000
Magnitude (Debye)      :      0.00000

Rotational constants in cm-1:     0.000000     0.000000     0.000000
Rotational constants in MHz :     0.000000     0.000000     0.000000

                             ****ORCA TERMINATED NORMALLY****
TOTAL RUN TIME: 0 days 0 hours 57 minutes 8 seconds 905 msec
