                         Program Version 5.0.1 -  RELEASE  -
|  1> !uks pbe nori verytightscf soscf notrah defgrid3
|  2>
|  3> %pal
|  4>   nprocs 32
|  5> end
|  6> %coords
|  7>   charge 0
|  8>   mult 3
|  9>   units bohrs
| 10>   coords
| 11>     Te 0.0 0.0 0.0
| 12>   end
| 13> end
| 14> %basis
| 15>   gtoname "Te_sapporo-qzp-2012-diffuse.basis"
| 16>   delECP Te
| 17> end
| 18> %rel
| 19>   method zora
| 20>   modelpot 1, 0, 0, 0
| 21>   c 137.035999084
| 22> endd                         ****END OF INPUT****

CARTESIAN COORDINATES (ANGSTROEM)
---------------------------------
  Te     0.000000    0.000000    0.000000

 Total Charge           Charge          ....    0
 Multiplicity           Mult            ....    3
 Number of Electrons    NEL             ....   52
 Basis Dimension        Dim             ....  181

ORBITAL ENERGIES
----------------
                 SPIN UP ORBITALS
  NO   OCC          E(Eh)            E(eV)
   0   1.0000   -1200.387225    -32664.1970
   1   1.0000    -178.451753     -4855.9191
   2   1.0000    -162.564831     -4423.6139
   3   1.0000    -162.564831     -4423.6139
   4   1.0000    -162.561800     -4423.5315
   5   1.0000     -35.198612      -957.8029
   6   1.0000     -29.764284      -809.9273
   7   1.0000     -29.764284      -809.9273
   8   1.0000     -29.757771      -809.7501
   9   1.0000     -20.721474      -563.8600
  10   1.0000     -20.721474      -563.8600
  11   1.0000     -20.717049      -563.7396
  12   1.0000     -20.717049      -563.7396
  13   1.0000     -20.715566      -563.6992
  14   1.0000      -5.977963      -162.6686
  15   1.0000      -4.235311      -115.2487
  16   1.0000      -4.235311      -115.2487
  17   1.0000      -4.220381      -114.8424
  18   1.0000      -1.551198       -42.2102
  19   1.0000      -1.551198       -42.2102
  20   1.0000      -1.537746       -41.8442
  21   1.0000      -1.537746       -41.8442
  22   1.0000      -1.533388       -41.7256
  23   1.0000      -0.566491       -15.4150
  24   1.0000      -0.251312        -6.8385
  25   1.0000      -0.251312        -6.8385
  26   1.0000      -0.215675        -5.8688
  27   0.0000      -0.021414        -0.5827
  28   0.0000       0.015503         0.4218
  29   0.0000       0.015503         0.4218
  30   0.0000       0.020344         0.5536
  31   0.0000       0.046491         1.2651

                 SPIN DOWN ORBITALS
  NO   OCC          E(Eh)            E(eV)
   0   1.0000   -1200.385546    -32664.1513
   1   1.0000    -178.451059     -4855.9002
   2   1.0000    -162.563067     -4423.5659
   3   1.0000    -162.563067     -4423.5659
   4   1.0000    -162.561148     -4423.5137
   5   1.0000     -35.197051      -957.7605
   6   1.0000     -29.761929      -809.8633
   7   1.0000     -29.761929      -809.8633
   8   1.0000     -29.756933      -809.7273
   9   1.0000     -20.719041      -563.7938
  10   1.0000     -20.719041      -563.7938
  11   1.0000     -20.715663      -563.7018
  12   1.0000     -20.715663      -563.7018
  13   1.0000     -20.714530      -563.6710
  14   1.0000      -5.973990      -162.5605
  15   1.0000      -4.229995      -115.1040
  16   1.0000      -4.229995      -115.1040
  17   1.0000      -4.218772      -114.7986
  18   1.0000      -1.540481       -41.9186
  19   1.0000      -1.540481       -41.9186
  20   1.0000      -1.532066       -41.6896
  21   1.0000      -1.532066       -41.6896
  22   1.0000      -1.528863       -41.6025
  23   1.0000      -0.516796       -14.0627
  24   1.0000      -0.195320        -5.3149
  25   0.0000      -0.186542        -5.0761
  26   0.0000      -0.186542        -5.0761
  27   0.0000      -0.007960        -0.2166
  28   0.0000       0.023213         0.6316
  29   0.0000       0.029622         0.8060

MULLIKEN ATOMIC CHARGES AND SPIN POPULATIONS
--------------------------------------------
   0 Te:    0.000000    2.000000
Sum of atomic charges         :    0.0000000

LOEWDIN ATOMIC CHARGES AND SPIN POPULATIONS
-------------------------------------------
   0 Te:    0.000000    2.000000

FINAL SINGLE POINT ENERGY     -6884.232372446991

DIPOLE MOMENT
-------------
                                X             Y             Z
Electronic contribution:      0.00000      -0.00000       0.00000
Nuclear contribution   :      0.00000       0.00000       0.00000
                        -----------------------------------------
Total Dipole Moment    :      0.00000      -0.00000       0.00000
                        -----------------------------------------
Magnitude (a.u.)       :      0.00000
Magnitude (Debye)      :      0.00000

Rotational constants in cm-1:     0.000000     0.000000     0.000000
Rotational constants in MHz :     0.000000     0.000000     0.000000

                             ****ORCA TERMINATED NORMALLY****
TOTAL RUN TIME: 0 days 0 hours 0 minutes 34 seconds 144 msec
