                         Program Version 5.0.1 -  RELEASE  -
|  1> !uks pbe nori verytightscf soscf notrah defgrid3
|  2>
|  3> %pal
|  4>   nprocs 32
|  5> end
|  6> %coords
|  7>   charge 0
|  8>   mult 1
|  9>   units bohrs
| 10>   coords
| 11>     Xe 0.0 0.0 0.0
| 12>   end
| 13> end
| 14> %basis
| 15>   gtoname "Xe_ano-rcc-vqzp.basis"
| 16>   delECP Xe
| 17> end
| 18> %rel
| 19>   method zora
| 20>   modelpot 1, 0, 0, 0
| 21>   c 137.035999084
| 22> endd                         ****END OF INPUT****

CARTESIAN COORDINATES (ANGSTROEM)
---------------------------------
  Xe     0.000000    0.000000    0.000000

 Total Charge           Charge          ....    0
 Multiplicity           Mult            ....    1
 Number of Electrons    NEL             ....   54
 Basis Dimension        Dim             ....   93

ORBITAL ENERGIES
----------------
                 SPIN UP ORBITALS
  NO   OCC          E(Eh)            E(eV)
   0   1.0000   -1311.948210    -35699.9258
   1   1.0000    -198.268009     -5395.1468
   2   1.0000    -178.965869     -4869.9089
   3   1.0000    -178.965869     -4869.9089
   4   1.0000    -178.965869     -4869.9089
   5   1.0000     -40.313522     -1096.9867
   6   1.0000     -33.972453      -924.4375
   7   1.0000     -33.972453      -924.4375
   8   1.0000     -33.972453      -924.4375
   9   1.0000     -24.178049      -657.9182
  10   1.0000     -24.178049      -657.9182
  11   1.0000     -24.178049      -657.9182
  12   1.0000     -24.178049      -657.9182
  13   1.0000     -24.178049      -657.9182
  14   1.0000      -7.248328      -197.2370
  15   1.0000      -5.220451      -142.0557
  16   1.0000      -5.220451      -142.0557
  17   1.0000      -5.220451      -142.0557
  18   1.0000      -2.183754       -59.4230
  19   1.0000      -2.183754       -59.4230
  20   1.0000      -2.183754       -59.4230
  21   1.0000      -2.183754       -59.4230
  22   1.0000      -2.183754       -59.4230
  23   1.0000      -0.721310       -19.6278
  24   1.0000      -0.303160        -8.2494
  25   1.0000      -0.303160        -8.2494
  26   1.0000      -0.303160        -8.2494
  27   0.0000       0.097577         2.6552
  28   0.0000       0.184321         5.0156
  29   0.0000       0.184321         5.0156
  30   0.0000       0.184321         5.0156
  31   0.0000       0.214863         5.8467

                 SPIN DOWN ORBITALS
  NO   OCC          E(Eh)            E(eV)
   0   1.0000   -1311.948210    -35699.9258
   1   1.0000    -198.268009     -5395.1468
   2   1.0000    -178.965869     -4869.9089
   3   1.0000    -178.965869     -4869.9089
   4   1.0000    -178.965869     -4869.9089
   5   1.0000     -40.313522     -1096.9867
   6   1.0000     -33.972453      -924.4375
   7   1.0000     -33.972453      -924.4375
   8   1.0000     -33.972453      -924.4375
   9   1.0000     -24.178049      -657.9182
  10   1.0000     -24.178049      -657.9182
  11   1.0000     -24.178049      -657.9182
  12   1.0000     -24.178049      -657.9182
  13   1.0000     -24.178049      -657.9182
  14   1.0000      -7.248328      -197.2370
  15   1.0000      -5.220451      -142.0557
  16   1.0000      -5.220451      -142.0557
  17   1.0000      -5.220451      -142.0557
  18   1.0000      -2.183754       -59.4230
  19   1.0000      -2.183754       -59.4230
  20   1.0000      -2.183754       -59.4230
  21   1.0000      -2.183754       -59.4230
  22   1.0000      -2.183754       -59.4230
  23   1.0000      -0.721310       -19.6278
  24   1.0000      -0.303160        -8.2494
  25   1.0000      -0.303160        -8.2494
  26   1.0000      -0.303160        -8.2494
  27   0.0000       0.097577         2.6552
  28   0.0000       0.184321         5.0156
  29   0.0000       0.184321         5.0156
  30   0.0000       0.184321         5.0156
  31   0.0000       0.214863         5.8467

MULLIKEN ATOMIC CHARGES AND SPIN POPULATIONS
--------------------------------------------
   0 Xe:    0.000000    0.000000
Sum of atomic charges         :    0.0000000

LOEWDIN ATOMIC CHARGES AND SPIN POPULATIONS
-------------------------------------------
   0 Xe:    0.000000    0.000000

FINAL SINGLE POINT ENERGY     -7582.026492745314

DIPOLE MOMENT
-------------
                                X             Y             Z
Electronic contribution:     -0.00000       0.00000      -0.00000
Nuclear contribution   :      0.00000       0.00000       0.00000
                        -----------------------------------------
Total Dipole Moment    :     -0.00000       0.00000      -0.00000
                        -----------------------------------------
Magnitude (a.u.)       :      0.00000
Magnitude (Debye)      :      0.00000

Rotational constants in cm-1:     0.000000     0.000000     0.000000
Rotational constants in MHz :     0.000000     0.000000     0.000000

                             ****ORCA TERMINATED NORMALLY****
TOTAL RUN TIME: 0 days 0 hours 11 minutes 40 seconds 947 msec
