                         Program Version 5.0.1 -  RELEASE  -
|  1> !uks pbe nori verytightscf soscf notrah defgrid3
|  2>
|  3> %pal
|  4>   nprocs 32
|  5> end
|  6> %coords
|  7>   charge 0
|  8>   mult 1
|  9>   units bohrs
| 10>   coords
| 11>     Xe 0.0 0.0 0.0
| 12>   end
| 13> end
| 14> %basis
| 15>   gtoname "Xe_ano-r3.basis"
| 16>   delECP Xe
| 17> end
| 18> %rel
| 19>   method zora
| 20>   modelpot 1, 0, 0, 0
| 21>   c 137.035999084
| 22> endd                         ****END OF INPUT****

CARTESIAN COORDINATES (ANGSTROEM)
---------------------------------
  Xe     0.000000    0.000000    0.000000

 Total Charge           Charge          ....    0
 Multiplicity           Mult            ....    1
 Number of Electrons    NEL             ....   54
 Basis Dimension        Dim             ....  124

ORBITAL ENERGIES
----------------
                 SPIN UP ORBITALS
  NO   OCC          E(Eh)            E(eV)
   0   1.0000   -1315.918369    -35807.9593
   1   1.0000    -198.690458     -5406.6422
   2   1.0000    -178.966588     -4869.9285
   3   1.0000    -178.966588     -4869.9285
   4   1.0000    -178.966588     -4869.9285
   5   1.0000     -40.395097     -1099.2065
   6   1.0000     -33.970897      -924.3951
   7   1.0000     -33.970897      -924.3951
   8   1.0000     -33.970897      -924.3951
   9   1.0000     -24.174368      -657.8180
  10   1.0000     -24.174368      -657.8180
  11   1.0000     -24.174368      -657.8180
  12   1.0000     -24.174368      -657.8180
  13   1.0000     -24.174368      -657.8180
  14   1.0000      -7.265144      -197.6946
  15   1.0000      -5.219528      -142.0306
  16   1.0000      -5.219528      -142.0306
  17   1.0000      -5.219528      -142.0306
  18   1.0000      -2.182664       -59.3933
  19   1.0000      -2.182664       -59.3933
  20   1.0000      -2.182664       -59.3933
  21   1.0000      -2.182664       -59.3933
  22   1.0000      -2.182664       -59.3933
  23   1.0000      -0.723697       -19.6928
  24   1.0000      -0.302861        -8.2413
  25   1.0000      -0.302861        -8.2413
  26   1.0000      -0.302861        -8.2413
  27   0.0000       0.016318         0.4440
  28   0.0000       0.190895         5.1945
  29   0.0000       0.190895         5.1945
  30   0.0000       0.190895         5.1945
  31   0.0000       0.235894         6.4190

                 SPIN DOWN ORBITALS
  NO   OCC          E(Eh)            E(eV)
   0   1.0000   -1315.918369    -35807.9593
   1   1.0000    -198.690458     -5406.6422
   2   1.0000    -178.966588     -4869.9285
   3   1.0000    -178.966588     -4869.9285
   4   1.0000    -178.966588     -4869.9285
   5   1.0000     -40.395097     -1099.2065
   6   1.0000     -33.970897      -924.3951
   7   1.0000     -33.970897      -924.3951
   8   1.0000     -33.970897      -924.3951
   9   1.0000     -24.174368      -657.8180
  10   1.0000     -24.174368      -657.8180
  11   1.0000     -24.174368      -657.8180
  12   1.0000     -24.174368      -657.8180
  13   1.0000     -24.174368      -657.8180
  14   1.0000      -7.265144      -197.6946
  15   1.0000      -5.219528      -142.0306
  16   1.0000      -5.219528      -142.0306
  17   1.0000      -5.219528      -142.0306
  18   1.0000      -2.182664       -59.3933
  19   1.0000      -2.182664       -59.3933
  20   1.0000      -2.182664       -59.3933
  21   1.0000      -2.182664       -59.3933
  22   1.0000      -2.182664       -59.3933
  23   1.0000      -0.723697       -19.6928
  24   1.0000      -0.302861        -8.2413
  25   1.0000      -0.302861        -8.2413
  26   1.0000      -0.302861        -8.2413
  27   0.0000       0.016318         0.4440
  28   0.0000       0.190895         5.1945
  29   0.0000       0.190895         5.1945
  30   0.0000       0.190895         5.1945
  31   0.0000       0.235894         6.4190

MULLIKEN ATOMIC CHARGES AND SPIN POPULATIONS
--------------------------------------------
   0 Xe:   -0.000000    0.000000
Sum of atomic charges         :   -0.0000000

LOEWDIN ATOMIC CHARGES AND SPIN POPULATIONS
-------------------------------------------
   0 Xe:   -0.000000    0.000000

FINAL SINGLE POINT ENERGY     -7591.020068103785

DIPOLE MOMENT
-------------
                                X             Y             Z
Electronic contribution:      0.00000       0.00000      -0.00000
Nuclear contribution   :      0.00000       0.00000       0.00000
                        -----------------------------------------
Total Dipole Moment    :      0.00000       0.00000      -0.00000
                        -----------------------------------------
Magnitude (a.u.)       :      0.00000
Magnitude (Debye)      :      0.00000

Rotational constants in cm-1:     0.000000     0.000000     0.000000
Rotational constants in MHz :     0.000000     0.000000     0.000000

                             ****ORCA TERMINATED NORMALLY****
TOTAL RUN TIME: 0 days 0 hours 22 minutes 28 seconds 933 msec
