                         Program Version 5.0.1 -  RELEASE  -
|  1> !uks pbe nori verytightscf soscf notrah defgrid3
|  2>
|  3> %pal
|  4>   nprocs 32
|  5> end
|  6> %coords
|  7>   charge 0
|  8>   mult 1
|  9>   units bohrs
| 10>   coords
| 11>     Xe 0.0 0.0 0.0
| 12>   end
| 13> end
| 14> %basis
| 15>   gtoname "Xe_sarc-zora-tzvpp.basis"
| 16>   delECP Xe
| 17> end
| 18> %rel
| 19>   method zora
| 20>   modelpot 1, 0, 0, 0
| 21>   c 137.035999084
| 22> endd                         ****END OF INPUT****

CARTESIAN COORDINATES (ANGSTROEM)
---------------------------------
  Xe     0.000000    0.000000    0.000000

 Total Charge           Charge          ....    0
 Multiplicity           Mult            ....    1
 Number of Electrons    NEL             ....   54
 Basis Dimension        Dim             ....   87

ORBITAL ENERGIES
----------------
                 SPIN UP ORBITALS
  NO   OCC          E(Eh)            E(eV)
   0   1.0000   -1323.249259    -36007.4429
   1   1.0000    -199.594492     -5431.2422
   2   1.0000    -178.847792     -4866.6958
   3   1.0000    -178.847792     -4866.6958
   4   1.0000    -178.847792     -4866.6958
   5   1.0000     -40.608453     -1105.0122
   6   1.0000     -33.975431      -924.5185
   7   1.0000     -33.975431      -924.5185
   8   1.0000     -33.975431      -924.5185
   9   1.0000     -24.171769      -657.7473
  10   1.0000     -24.171769      -657.7473
  11   1.0000     -24.171769      -657.7473
  12   1.0000     -24.171769      -657.7473
  13   1.0000     -24.171769      -657.7473
  14   1.0000      -7.323119      -199.2722
  15   1.0000      -5.228445      -142.2732
  16   1.0000      -5.228445      -142.2732
  17   1.0000      -5.228445      -142.2732
  18   1.0000      -2.179505       -59.3074
  19   1.0000      -2.179505       -59.3074
  20   1.0000      -2.179505       -59.3074
  21   1.0000      -2.179505       -59.3074
  22   1.0000      -2.179505       -59.3074
  23   1.0000      -0.730640       -19.8817
  24   1.0000      -0.303164        -8.2495
  25   1.0000      -0.303164        -8.2495
  26   1.0000      -0.303164        -8.2495
  27   0.0000       0.033063         0.8997
  28   0.0000       0.033063         0.8997
  29   0.0000       0.033063         0.8997
  30   0.0000       0.041743         1.1359
  31   0.0000       0.244861         6.6630

                 SPIN DOWN ORBITALS
  NO   OCC          E(Eh)            E(eV)
   0   1.0000   -1323.249259    -36007.4429
   1   1.0000    -199.594492     -5431.2422
   2   1.0000    -178.847792     -4866.6958
   3   1.0000    -178.847792     -4866.6958
   4   1.0000    -178.847792     -4866.6958
   5   1.0000     -40.608453     -1105.0122
   6   1.0000     -33.975431      -924.5185
   7   1.0000     -33.975431      -924.5185
   8   1.0000     -33.975431      -924.5185
   9   1.0000     -24.171769      -657.7473
  10   1.0000     -24.171769      -657.7473
  11   1.0000     -24.171769      -657.7473
  12   1.0000     -24.171769      -657.7473
  13   1.0000     -24.171769      -657.7473
  14   1.0000      -7.323119      -199.2722
  15   1.0000      -5.228445      -142.2732
  16   1.0000      -5.228445      -142.2732
  17   1.0000      -5.228445      -142.2732
  18   1.0000      -2.179505       -59.3074
  19   1.0000      -2.179505       -59.3074
  20   1.0000      -2.179505       -59.3074
  21   1.0000      -2.179505       -59.3074
  22   1.0000      -2.179505       -59.3074
  23   1.0000      -0.730640       -19.8817
  24   1.0000      -0.303164        -8.2495
  25   1.0000      -0.303164        -8.2495
  26   1.0000      -0.303164        -8.2495
  27   0.0000       0.033063         0.8997
  28   0.0000       0.033063         0.8997
  29   0.0000       0.033063         0.8997
  30   0.0000       0.041743         1.1359
  31   0.0000       0.244861         6.6630

MULLIKEN ATOMIC CHARGES AND SPIN POPULATIONS
--------------------------------------------
   0 Xe:   -0.000000    0.000000
Sum of atomic charges         :   -0.0000000

LOEWDIN ATOMIC CHARGES AND SPIN POPULATIONS
-------------------------------------------
   0 Xe:   -0.000000    0.000000

FINAL SINGLE POINT ENERGY     -7608.652979983319

DIPOLE MOMENT
-------------
                                X             Y             Z
Electronic contribution:      0.00000       0.00000       0.00000
Nuclear contribution   :      0.00000       0.00000       0.00000
                        -----------------------------------------
Total Dipole Moment    :      0.00000       0.00000       0.00000
                        -----------------------------------------
Magnitude (a.u.)       :      0.00000
Magnitude (Debye)      :      0.00000

Rotational constants in cm-1:     0.000000     0.000000     0.000000
Rotational constants in MHz :     0.000000     0.000000     0.000000

                             ****ORCA TERMINATED NORMALLY****
TOTAL RUN TIME: 0 days 0 hours 0 minutes 43 seconds 308 msec
