                         Program Version 5.0.1 -  RELEASE  -
|  1> !uks pbe nori verytightscf soscf notrah defgrid3
|  2>
|  3> %pal
|  4>   nprocs 32
|  5> end
|  6> %coords
|  7>   charge 0
|  8>   mult 2
|  9>   units bohrs
| 10>   coords
| 11>     Y 0.0 0.0 0.0
| 12>   end
| 13> end
| 14> %basis
| 15>   gtoname "Y_ano-r3.basis"
| 16>   delECP Y
| 17> end
| 18> %rel
| 19>   method zora
| 20>   modelpot 1, 0, 0, 0
| 21>   c 137.035999084
| 22> endd                         ****END OF INPUT****

CARTESIAN COORDINATES (ANGSTROEM)
---------------------------------
   Y     0.000000    0.000000    0.000000

 Total Charge           Charge          ....    0
 Multiplicity           Mult            ....    2
 Number of Electrons    NEL             ....   39
 Basis Dimension        Dim             ....  106

ORBITAL ENERGIES
----------------
                 SPIN UP ORBITALS
  NO   OCC          E(Eh)            E(eV)
   0   1.0000    -633.130691    -17228.3620
   1   1.0000     -85.509635     -2326.8355
   2   1.0000     -76.293166     -2076.0426
   3   1.0000     -76.290888     -2075.9806
   4   1.0000     -76.290888     -2075.9806
   5   1.0000     -13.599865      -370.0711
   6   1.0000     -10.593278      -288.2577
   7   1.0000     -10.585928      -288.0577
   8   1.0000     -10.585928      -288.0577
   9   1.0000      -5.578870      -151.8088
  10   1.0000      -5.577350      -151.7674
  11   1.0000      -5.577349      -151.7674
  12   1.0000      -5.572270      -151.6292
  13   1.0000      -5.571880      -151.6186
  14   1.0000      -1.761616       -47.9360
  15   1.0000      -1.029228       -28.0067
  16   1.0000      -1.024904       -27.8891
  17   1.0000      -1.024904       -27.8891
  18   1.0000      -0.152772        -4.1571
  19   1.0000      -0.110179        -2.9981
  20   0.0000      -0.089687        -2.4405
  21   0.0000      -0.089687        -2.4405
  22   0.0000      -0.087741        -2.3875
  23   0.0000      -0.083015        -2.2590
  24   0.0000      -0.022321        -0.6074

                 SPIN DOWN ORBITALS
  NO   OCC          E(Eh)            E(eV)
   0   1.0000    -633.130781    -17228.3644
   1   1.0000     -85.507981     -2326.7905
   2   1.0000     -76.293101     -2076.0408
   3   1.0000     -76.289134     -2075.9329
   4   1.0000     -76.289134     -2075.9329
   5   1.0000     -13.598897      -370.0448
   6   1.0000     -10.592346      -288.2324
   7   1.0000     -10.584825      -288.0277
   8   1.0000     -10.584825      -288.0277
   9   1.0000      -5.577297      -151.7660
  10   1.0000      -5.576079      -151.7328
  11   1.0000      -5.576079      -151.7328
  12   1.0000      -5.572272      -151.6292
  13   1.0000      -5.568117      -151.5162
  14   1.0000      -1.749719       -47.6123
  15   1.0000      -1.028248       -27.9800
  16   1.0000      -1.003736       -27.3130
  17   1.0000      -1.003736       -27.3130
  18   1.0000      -0.143990        -3.9182
  19   0.0000      -0.084616        -2.3025
  20   0.0000      -0.083482        -2.2717
  21   0.0000      -0.083482        -2.2716
  22   0.0000      -0.069504        -1.8913
  23   0.0000      -0.053115        -1.4453

MULLIKEN ATOMIC CHARGES AND SPIN POPULATIONS
--------------------------------------------
   0  Y:   -0.000000    1.000000
Sum of atomic charges         :   -0.0000000

LOEWDIN ATOMIC CHARGES AND SPIN POPULATIONS
-------------------------------------------
   0  Y:    0.000000    1.000000

FINAL SINGLE POINT ENERGY     -3421.044085201534

DIPOLE MOMENT
-------------
                                X             Y             Z
Electronic contribution:      0.00000       0.00000      -0.00000
Nuclear contribution   :      0.00000       0.00000       0.00000
                        -----------------------------------------
Total Dipole Moment    :      0.00000       0.00000      -0.00000
                        -----------------------------------------
Magnitude (a.u.)       :      0.00000
Magnitude (Debye)      :      0.00000

Rotational constants in cm-1:     0.000000     0.000000     0.000000
Rotational constants in MHz :     0.000000     0.000000     0.000000

                             ****ORCA TERMINATED NORMALLY****
TOTAL RUN TIME: 0 days 1 hours 53 minutes 14 seconds 847 msec
