                         Program Version 5.0.1 -  RELEASE  -
|  1> !uks pbe nori verytightscf soscf notrah defgrid3
|  2>
|  3> %pal
|  4>   nprocs 32
|  5> end
|  6> %coords
|  7>   charge 0
|  8>   mult 2
|  9>   units bohrs
| 10>   coords
| 11>     Y 0.0 0.0 0.0
| 12>   end
| 13> end
| 14> %basis
| 15>   gtoname "Y_ano-rcc-vqzp.basis"
| 16>   delECP Y
| 17> end
| 18> %rel
| 19>   method zora
| 20>   modelpot 1, 0, 0, 0
| 21>   c 137.035999084
| 22> endd                         ****END OF INPUT****

CARTESIAN COORDINATES (ANGSTROEM)
---------------------------------
   Y     0.000000    0.000000    0.000000

 Total Charge           Charge          ....    0
 Multiplicity           Mult            ....    2
 Number of Electrons    NEL             ....   39
 Basis Dimension        Dim             ....  104

ORBITAL ENERGIES
----------------
                 SPIN UP ORBITALS
  NO   OCC          E(Eh)            E(eV)
   0   1.0000    -631.926118    -17195.5839
   1   1.0000     -85.394477     -2323.7018
   2   1.0000     -76.300734     -2076.2485
   3   1.0000     -76.298518     -2076.1882
   4   1.0000     -76.298518     -2076.1882
   5   1.0000     -13.581646      -369.5754
   6   1.0000     -10.595734      -288.3246
   7   1.0000     -10.588440      -288.1261
   8   1.0000     -10.588440      -288.1261
   9   1.0000      -5.581629      -151.8838
  10   1.0000      -5.580130      -151.8431
  11   1.0000      -5.580130      -151.8431
  12   1.0000      -5.575057      -151.7050
  13   1.0000      -5.574708      -151.6955
  14   1.0000      -1.758360       -47.8474
  15   1.0000      -1.028792       -27.9948
  16   1.0000      -1.024524       -27.8787
  17   1.0000      -1.024524       -27.8787
  18   1.0000      -0.151990        -4.1359
  19   1.0000      -0.109368        -2.9760
  20   0.0000      -0.088743        -2.4148
  21   0.0000      -0.088742        -2.4148
  22   0.0000      -0.086669        -2.3584
  23   0.0000      -0.082359        -2.2411
  24   0.0000      -0.055769        -1.5176

                 SPIN DOWN ORBITALS
  NO   OCC          E(Eh)            E(eV)
   0   1.0000    -631.926208    -17195.5863
   1   1.0000     -85.392908     -2323.6591
   2   1.0000     -76.300690     -2076.2473
   3   1.0000     -76.296852     -2076.1429
   4   1.0000     -76.296852     -2076.1429
   5   1.0000     -13.580702      -369.5497
   6   1.0000     -10.594801      -288.2992
   7   1.0000     -10.587378      -288.0972
   8   1.0000     -10.587378      -288.0972
   9   1.0000      -5.580087      -151.8419
  10   1.0000      -5.578887      -151.8092
  11   1.0000      -5.578887      -151.8092
  12   1.0000      -5.575133      -151.7071
  13   1.0000      -5.571040      -151.5957
  14   1.0000      -1.746454       -47.5234
  15   1.0000      -1.027878       -27.9700
  16   1.0000      -1.003286       -27.3008
  17   1.0000      -1.003285       -27.3008
  18   1.0000      -0.143187        -3.8963
  19   0.0000      -0.083557        -2.2737
  20   0.0000      -0.082443        -2.2434
  21   0.0000      -0.082443        -2.2434
  22   0.0000      -0.068085        -1.8527
  23   0.0000      -0.057996        -1.5782

MULLIKEN ATOMIC CHARGES AND SPIN POPULATIONS
--------------------------------------------
   0  Y:   -0.000000    1.000000
Sum of atomic charges         :   -0.0000000

LOEWDIN ATOMIC CHARGES AND SPIN POPULATIONS
-------------------------------------------
   0  Y:   -0.000000    1.000000

FINAL SINGLE POINT ENERGY     -3418.339191886550

DIPOLE MOMENT
-------------
                                X             Y             Z
Electronic contribution:     -0.00000       0.00000       0.00000
Nuclear contribution   :      0.00000       0.00000       0.00000
                        -----------------------------------------
Total Dipole Moment    :     -0.00000       0.00000       0.00000
                        -----------------------------------------
Magnitude (a.u.)       :      0.00000
Magnitude (Debye)      :      0.00000

Rotational constants in cm-1:     0.000000     0.000000     0.000000
Rotational constants in MHz :     0.000000     0.000000     0.000000

                             ****ORCA TERMINATED NORMALLY****
TOTAL RUN TIME: 0 days 1 hours 6 minutes 25 seconds 287 msec
