                         Program Version 5.0.1 -  RELEASE  -
|  1> !uks pbe nori verytightscf nososcf notrah defgrid3
|  2>
|  3> %pal
|  4>   nprocs 32
|  5> end
|  6> %coords
|  7>   charge 0
|  8>   mult 2
|  9>   units bohrs
| 10>   coords
| 11>     Y 0.0 0.0 0.0
| 12>   end
| 13> end
| 14> %basis
| 15>   gtoname "Y_ugbs.basis"
| 16>   delECP Y
| 17> end
| 18> %rel
| 19>   method zora
| 20>   modelpot 1, 0, 0, 0
| 21>   c 137.035999084
| 22> end
| 23>
| 24>                          ****END OF INPUT****

CARTESIAN COORDINATES (ANGSTROEM)
---------------------------------
   Y     0.000000    0.000000    0.000000

 Total Charge           Charge          ....    0
 Multiplicity           Mult            ....    2
 Number of Electrons    NEL             ....   39
 Basis Dimension        Dim             ....  186

ORBITAL ENERGIES
----------------
                 SPIN UP ORBITALS
  NO   OCC          E(Eh)            E(eV)
   0   1.0000    -634.862988    -17275.5002
   1   1.0000     -85.595261     -2329.1655
   2   1.0000     -76.126421     -2071.5052
   3   1.0000     -76.123995     -2071.4392
   4   1.0000     -76.123995     -2071.4392
   5   1.0000     -13.615558      -370.4982
   6   1.0000     -10.569195      -287.6024
   7   1.0000     -10.560962      -287.3784
   8   1.0000     -10.560962      -287.3784
   9   1.0000      -5.554067      -151.1338
  10   1.0000      -5.552333      -151.0867
  11   1.0000      -5.552333      -151.0867
  12   1.0000      -5.546624      -150.9313
  13   1.0000      -5.546298      -150.9224
  14   1.0000      -1.766156       -48.0595
  15   1.0000      -1.029437       -28.0124
  16   1.0000      -1.022814       -27.8322
  17   1.0000      -1.022814       -27.8322
  18   1.0000      -0.152768        -4.1570
  19   1.0000      -0.107571        -2.9272
  20   0.0000      -0.089390        -2.4324
  21   0.0000      -0.089390        -2.4324
  22   0.0000      -0.087787        -2.3888
  23   0.0000      -0.082826        -2.2538
  24   0.0000      -0.039228        -1.0674

                 SPIN DOWN ORBITALS
  NO   OCC          E(Eh)            E(eV)
   0   1.0000    -634.863079    -17275.5026
   1   1.0000     -85.593515     -2329.1180
   2   1.0000     -76.126323     -2071.5026
   3   1.0000     -76.122158     -2071.3892
   4   1.0000     -76.122158     -2071.3892
   5   1.0000     -13.614581      -370.4716
   6   1.0000     -10.568287      -287.5777
   7   1.0000     -10.559829      -287.3475
   8   1.0000     -10.559829      -287.3475
   9   1.0000      -5.552474      -151.0905
  10   1.0000      -5.551028      -151.0511
  11   1.0000      -5.551028      -151.0511
  12   1.0000      -5.546542      -150.9291
  13   1.0000      -5.542452      -150.8178
  14   1.0000      -1.754206       -47.7344
  15   1.0000      -1.027198       -27.9515
  16   1.0000      -1.001912       -27.2634
  17   1.0000      -1.001912       -27.2634
  18   1.0000      -0.143947        -3.9170
  19   0.0000      -0.083505        -2.2723
  20   0.0000      -0.082331        -2.2403
  21   0.0000      -0.082331        -2.2403
  22   0.0000      -0.067355        -1.8328
  23   0.0000      -0.053184        -1.4472

MULLIKEN ATOMIC CHARGES AND SPIN POPULATIONS
--------------------------------------------
   0  Y:   -0.000000    1.000000
Sum of atomic charges         :   -0.0000000

LOEWDIN ATOMIC CHARGES AND SPIN POPULATIONS
-------------------------------------------
   0  Y:   -0.000000    1.000000

FINAL SINGLE POINT ENERGY     -3425.689513804974

DIPOLE MOMENT
-------------
                                X             Y             Z
Electronic contribution:      0.00000       0.00000      -0.00000
Nuclear contribution   :      0.00000       0.00000       0.00000
                        -----------------------------------------
Total Dipole Moment    :      0.00000       0.00000      -0.00000
                        -----------------------------------------
Magnitude (a.u.)       :      0.00000
Magnitude (Debye)      :      0.00000

Rotational constants in cm-1:     0.000000     0.000000     0.000000
Rotational constants in MHz :     0.000000     0.000000     0.000000

                             ****ORCA TERMINATED NORMALLY****
TOTAL RUN TIME: 0 days 0 hours 0 minutes 48 seconds 811 msec
