                         Program Version 5.0.1 -  RELEASE  -
|  1> !uks pbe nori verytightscf soscf notrah defgrid3
|  2>
|  3> %pal
|  4>   nprocs 32
|  5> end
|  6> %coords
|  7>   charge 0
|  8>   mult 3
|  9>   units bohrs
| 10>   coords
| 11>     Zr 0.0 0.0 0.0
| 12>   end
| 13> end
| 14> %basis
| 15>   gtoname "Zr_ano-rcc-vqzp.basis"
| 16>   delECP Zr
| 17> end
| 18> %rel
| 19>   method zora
| 20>   modelpot 1, 0, 0, 0
| 21>   c 137.035999084
| 22> endd                         ****END OF INPUT****

CARTESIAN COORDINATES (ANGSTROEM)
---------------------------------
  Zr     0.000000    0.000000    0.000000

 Total Charge           Charge          ....    0
 Multiplicity           Mult            ....    3
 Number of Electrons    NEL             ....   40
 Basis Dimension        Dim             ....  104

ORBITAL ENERGIES
----------------
                 SPIN UP ORBITALS
  NO   OCC          E(Eh)            E(eV)
   0   1.0000    -668.434376    -18189.0241
   1   1.0000     -91.228684     -2482.4587
   2   1.0000     -81.656583     -2221.9886
   3   1.0000     -81.654786     -2221.9397
   4   1.0000     -81.654786     -2221.9397
   5   1.0000     -14.875829      -404.7919
   6   1.0000     -11.718097      -318.8656
   7   1.0000     -11.710551      -318.6603
   8   1.0000     -11.710550      -318.6603
   9   1.0000      -6.425756      -174.8537
  10   1.0000      -6.424967      -174.8322
  11   1.0000      -6.424967      -174.8322
  12   1.0000      -6.419223      -174.6759
  13   1.0000      -6.419223      -174.6759
  14   1.0000      -1.984252       -53.9942
  15   1.0000      -1.182605       -32.1803
  16   1.0000      -1.182604       -32.1803
  17   1.0000      -1.182510       -32.1777
  18   1.0000      -0.164349        -4.4722
  19   1.0000      -0.141589        -3.8528
  20   1.0000      -0.141588        -3.8528
  21   0.0000      -0.115810        -3.1514
  22   0.0000      -0.115808        -3.1513
  23   0.0000      -0.110144        -2.9972
  24   0.0000      -0.055700        -1.5157
  25   0.0000      -0.055700        -1.5157

                 SPIN DOWN ORBITALS
  NO   OCC          E(Eh)            E(eV)
   0   1.0000    -668.434516    -18189.0279
   1   1.0000     -91.224433     -2482.3430
   2   1.0000     -81.655069     -2221.9474
   3   1.0000     -81.650897     -2221.8339
   4   1.0000     -81.650897     -2221.8339
   5   1.0000     -14.873322      -404.7237
   6   1.0000     -11.714992      -318.7811
   7   1.0000     -11.707979      -318.5903
   8   1.0000     -11.707978      -318.5903
   9   1.0000      -6.422753      -174.7720
  10   1.0000      -6.421121      -174.7276
  11   1.0000      -6.421121      -174.7276
  12   1.0000      -6.414240      -174.5403
  13   1.0000      -6.414240      -174.5403
  14   1.0000      -1.954961       -53.1972
  15   1.0000      -1.164072       -31.6760
  16   1.0000      -1.140499       -31.0345
  17   1.0000      -1.140496       -31.0345
  18   1.0000      -0.146007        -3.9731
  19   0.0000      -0.099157        -2.6982
  20   0.0000      -0.096027        -2.6130
  21   0.0000      -0.096025        -2.6130
  22   0.0000      -0.068474        -1.8633
  23   0.0000      -0.068474        -1.8633

MULLIKEN ATOMIC CHARGES AND SPIN POPULATIONS
--------------------------------------------
   0 Zr:    0.000000    2.000000
Sum of atomic charges         :    0.0000000

LOEWDIN ATOMIC CHARGES AND SPIN POPULATIONS
-------------------------------------------
   0 Zr:    0.000000    2.000000

FINAL SINGLE POINT ENERGY     -3635.454127245676

DIPOLE MOMENT
-------------
                                X             Y             Z
Electronic contribution:     -0.00000      -0.00000       0.00000
Nuclear contribution   :      0.00000       0.00000       0.00000
                        -----------------------------------------
Total Dipole Moment    :     -0.00000      -0.00000       0.00000
                        -----------------------------------------
Magnitude (a.u.)       :      0.00000
Magnitude (Debye)      :      0.00000

Rotational constants in cm-1:     0.000000     0.000000     0.000000
Rotational constants in MHz :     0.000000     0.000000     0.000000

                             ****ORCA TERMINATED NORMALLY****
TOTAL RUN TIME: 0 days 2 hours 27 minutes 7 seconds 225 msec
