                         Program Version 5.0.1 -  RELEASE  -
|  1> !uks pbe nori verytightscf soscf notrah defgrid3
|  2>
|  3> %pal
|  4>   nprocs 32
|  5> end
|  6> %coords
|  7>   charge 0
|  8>   mult 3
|  9>   units bohrs
| 10>   coords
| 11>     Zr 0.0 0.0 0.0
| 12>   end
| 13> end
| 14> %basis
| 15>   gtoname "Zr_ano-r3.basis"
| 16>   delECP Zr
| 17> end
| 18> %rel
| 19>   method zora
| 20>   modelpot 1, 0, 0, 0
| 21>   c 137.035999084
| 22> endd                         ****END OF INPUT****

CARTESIAN COORDINATES (ANGSTROEM)
---------------------------------
  Zr     0.000000    0.000000    0.000000

 Total Charge           Charge          ....    0
 Multiplicity           Mult            ....    3
 Number of Electrons    NEL             ....   40
 Basis Dimension        Dim             ....  101

ORBITAL ENERGIES
----------------
                 SPIN UP ORBITALS
  NO   OCC          E(Eh)            E(eV)
   0   1.0000    -669.739397    -18224.5355
   1   1.0000     -91.365672     -2486.1863
   2   1.0000     -81.662484     -2222.1492
   3   1.0000     -81.660714     -2222.1010
   4   1.0000     -81.660714     -2222.1010
   5   1.0000     -14.900678      -405.4681
   6   1.0000     -11.720376      -318.9276
   7   1.0000     -11.712869      -318.7234
   8   1.0000     -11.712868      -318.7233
   9   1.0000      -6.428087      -174.9171
  10   1.0000      -6.427310      -174.8960
  11   1.0000      -6.427310      -174.8960
  12   1.0000      -6.421597      -174.7405
  13   1.0000      -6.421597      -174.7405
  14   1.0000      -1.988543       -54.1110
  15   1.0000      -1.183625       -32.2081
  16   1.0000      -1.183623       -32.2080
  17   1.0000      -1.183515       -32.2051
  18   1.0000      -0.165510        -4.5038
  19   1.0000      -0.142687        -3.8827
  20   1.0000      -0.142685        -3.8827
  21   0.0000      -0.116896        -3.1809
  22   0.0000      -0.116894        -3.1809
  23   0.0000      -0.111275        -3.0280
  24   0.0000      -0.017506        -0.4764
  25   0.0000      -0.017506        -0.4764

                 SPIN DOWN ORBITALS
  NO   OCC          E(Eh)            E(eV)
   0   1.0000    -669.739550    -18224.5397
   1   1.0000     -91.361473     -2486.0721
   2   1.0000     -81.660995     -2222.1086
   3   1.0000     -81.656877     -2221.9966
   4   1.0000     -81.656876     -2221.9966
   5   1.0000     -14.898200      -405.4006
   6   1.0000     -11.717326      -318.8446
   7   1.0000     -11.710327      -318.6542
   8   1.0000     -11.710325      -318.6542
   9   1.0000      -6.425152      -174.8373
  10   1.0000      -6.423517      -174.7928
  11   1.0000      -6.423517      -174.7928
  12   1.0000      -6.416658      -174.6061
  13   1.0000      -6.416658      -174.6061
  14   1.0000      -1.959252       -53.3140
  15   1.0000      -1.165013       -31.7016
  16   1.0000      -1.141592       -31.0643
  17   1.0000      -1.141587       -31.0642
  18   1.0000      -0.147128        -4.0035
  19   0.0000      -0.100463        -2.7337
  20   0.0000      -0.097325        -2.6484
  21   0.0000      -0.097323        -2.6483
  22   0.0000      -0.070094        -1.9074
  23   0.0000      -0.070093        -1.9073

MULLIKEN ATOMIC CHARGES AND SPIN POPULATIONS
--------------------------------------------
   0 Zr:   -0.000000    2.000000
Sum of atomic charges         :   -0.0000000

LOEWDIN ATOMIC CHARGES AND SPIN POPULATIONS
-------------------------------------------
   0 Zr:   -0.000000    2.000000

FINAL SINGLE POINT ENERGY     -3638.344751856366

DIPOLE MOMENT
-------------
                                X             Y             Z
Electronic contribution:     -0.00000       0.00000      -0.00000
Nuclear contribution   :      0.00000       0.00000       0.00000
                        -----------------------------------------
Total Dipole Moment    :     -0.00000       0.00000      -0.00000
                        -----------------------------------------
Magnitude (a.u.)       :      0.00000
Magnitude (Debye)      :      0.00000

Rotational constants in cm-1:     0.000000     0.000000     0.000000
Rotational constants in MHz :     0.000000     0.000000     0.000000

                             ****ORCA TERMINATED NORMALLY****
TOTAL RUN TIME: 0 days 3 hours 22 minutes 12 seconds 122 msec
