                         Program Version 5.0.1 -  RELEASE  -
|  1> !uks pbe nori verytightscf soscf notrah defgrid3
|  2>
|  3> %pal
|  4>   nprocs 32
|  5> end
|  6> %coords
|  7>   charge 0
|  8>   mult 3
|  9>   units bohrs
| 10>   coords
| 11>     Zr 0.0 0.0 0.0
| 12>   end
| 13> end
| 14> %basis
| 15>   gtoname "Zr_sapporo-qzp-2012-diffuse.basis"
| 16>   delECP Zr
| 17> end
| 18> %rel
| 19>   method zora
| 20>   modelpot 1, 0, 0, 0
| 21>   c 137.035999084
| 22> endd                         ****END OF INPUT****

CARTESIAN COORDINATES (ANGSTROEM)
---------------------------------
  Zr     0.000000    0.000000    0.000000

 Total Charge           Charge          ....    0
 Multiplicity           Mult            ....    3
 Number of Electrons    NEL             ....   40
 Basis Dimension        Dim             ....  150

ORBITAL ENERGIES
----------------
                 SPIN UP ORBITALS
  NO   OCC          E(Eh)            E(eV)
   0   1.0000    -670.056093    -18233.1532
   1   1.0000     -91.191808     -2481.4553
   2   1.0000     -81.830742     -2226.7277
   3   1.0000     -81.828929     -2226.6784
   4   1.0000     -81.828929     -2226.6784
   5   1.0000     -14.820749      -403.2931
   6   1.0000     -11.714100      -318.7569
   7   1.0000     -11.706460      -318.5490
   8   1.0000     -11.706460      -318.5490
   9   1.0000      -6.411056      -174.4537
  10   1.0000      -6.410291      -174.4329
  11   1.0000      -6.410291      -174.4329
  12   1.0000      -6.404486      -174.2749
  13   1.0000      -6.404486      -174.2749
  14   1.0000      -1.979775       -53.8724
  15   1.0000      -1.184714       -32.2377
  16   1.0000      -1.184714       -32.2377
  17   1.0000      -1.184542       -32.2330
  18   1.0000      -0.164593        -4.4788
  19   1.0000      -0.142396        -3.8748
  20   1.0000      -0.142396        -3.8748
  21   0.0000      -0.116675        -3.1749
  22   0.0000      -0.116675        -3.1749
  23   0.0000      -0.110891        -3.0175
  24   0.0000      -0.057710        -1.5704
  25   0.0000      -0.057710        -1.5704

                 SPIN DOWN ORBITALS
  NO   OCC          E(Eh)            E(eV)
   0   1.0000    -670.056210    -18233.1564
   1   1.0000     -91.187443     -2481.3365
   2   1.0000     -81.829261     -2226.6874
   3   1.0000     -81.825025     -2226.5721
   4   1.0000     -81.825025     -2226.5721
   5   1.0000     -14.818121      -403.2216
   6   1.0000     -11.710855      -318.6686
   7   1.0000     -11.703771      -318.4758
   8   1.0000     -11.703771      -318.4758
   9   1.0000      -6.407981      -174.3700
  10   1.0000      -6.406350      -174.3256
  11   1.0000      -6.406350      -174.3256
  12   1.0000      -6.399391      -174.1363
  13   1.0000      -6.399391      -174.1363
  14   1.0000      -1.950564       -53.0775
  15   1.0000      -1.166324       -31.7373
  16   1.0000      -1.142747       -31.0957
  17   1.0000      -1.142747       -31.0957
  18   1.0000      -0.146428        -3.9845
  19   0.0000      -0.100230        -2.7274
  20   0.0000      -0.097287        -2.6473
  21   0.0000      -0.097286        -2.6473
  22   0.0000      -0.070023        -1.9054
  23   0.0000      -0.070023        -1.9054

MULLIKEN ATOMIC CHARGES AND SPIN POPULATIONS
--------------------------------------------
   0 Zr:   -0.000000    2.000000
Sum of atomic charges         :   -0.0000000

LOEWDIN ATOMIC CHARGES AND SPIN POPULATIONS
-------------------------------------------
   0 Zr:   -0.000000    2.000000

FINAL SINGLE POINT ENERGY     -3633.414517516973

DIPOLE MOMENT
-------------
                                X             Y             Z
Electronic contribution:      0.00000      -0.00000       0.00000
Nuclear contribution   :      0.00000       0.00000       0.00000
                        -----------------------------------------
Total Dipole Moment    :      0.00000      -0.00000       0.00000
                        -----------------------------------------
Magnitude (a.u.)       :      0.00000
Magnitude (Debye)      :      0.00000

Rotational constants in cm-1:     0.000000     0.000000     0.000000
Rotational constants in MHz :     0.000000     0.000000     0.000000

                             ****ORCA TERMINATED NORMALLY****
TOTAL RUN TIME: 0 days 0 hours 2 minutes 0 seconds 217 msec
