                         Program Version 5.0.1 -  RELEASE  -
|  1> !uks pbe nori verytightscf soscf notrah defgrid3
|  2>
|  3> %pal
|  4>   nprocs 32
|  5> end
|  6> %coords
|  7>   charge 0
|  8>   mult 3
|  9>   units bohrs
| 10>   coords
| 11>     Zr 0.0 0.0 0.0
| 12>   end
| 13> end
| 14> %basis
| 15>   gtoname "Zr_sarc-zora-tzvpp.basis"
| 16>   delECP Zr
| 17> end
| 18> %rel
| 19>   method zora
| 20>   modelpot 1, 0, 0, 0
| 21>   c 137.035999084
| 22> endd                         ****END OF INPUT****

CARTESIAN COORDINATES (ANGSTROEM)
---------------------------------
  Zr     0.000000    0.000000    0.000000

 Total Charge           Charge          ....    0
 Multiplicity           Mult            ....    3
 Number of Electrons    NEL             ....   40
 Basis Dimension        Dim             ....   98

ORBITAL ENERGIES
----------------
                 SPIN UP ORBITALS
  NO   OCC          E(Eh)            E(eV)
   0   1.0000    -671.773231    -18279.8790
   1   1.0000     -91.530809     -2490.6799
   2   1.0000     -81.547031     -2219.0075
   3   1.0000     -81.545089     -2218.9547
   4   1.0000     -81.545088     -2218.9547
   5   1.0000     -14.931003      -406.2932
   6   1.0000     -11.702584      -318.4435
   7   1.0000     -11.694801      -318.2317
   8   1.0000     -11.694800      -318.2317
   9   1.0000      -6.408612      -174.3872
  10   1.0000      -6.407708      -174.3626
  11   1.0000      -6.407707      -174.3626
  12   1.0000      -6.401838      -174.2029
  13   1.0000      -6.401838      -174.2029
  14   1.0000      -1.995987       -54.3136
  15   1.0000      -1.183851       -32.2142
  16   1.0000      -1.183369       -32.2011
  17   1.0000      -1.183368       -32.2011
  18   1.0000      -0.165667        -4.5080
  19   1.0000      -0.141466        -3.8495
  20   1.0000      -0.141465        -3.8495
  21   0.0000      -0.116928        -3.1818
  22   0.0000      -0.116927        -3.1817
  23   0.0000      -0.111737        -3.0405
  24   0.0000      -0.055876        -1.5205
  25   0.0000      -0.055875        -1.5204

                 SPIN DOWN ORBITALS
  NO   OCC          E(Eh)            E(eV)
   0   1.0000    -671.773386    -18279.8832
   1   1.0000     -91.526456     -2490.5615
   2   1.0000     -81.545439     -2218.9642
   3   1.0000     -81.541136     -2218.8471
   4   1.0000     -81.541135     -2218.8471
   5   1.0000     -14.928374      -406.2217
   6   1.0000     -11.699401      -318.3569
   7   1.0000     -11.692075      -318.1575
   8   1.0000     -11.692074      -318.1575
   9   1.0000      -6.405467      -174.3016
  10   1.0000      -6.403719      -174.2540
  11   1.0000      -6.403719      -174.2540
  12   1.0000      -6.396648      -174.0616
  13   1.0000      -6.396648      -174.0616
  14   1.0000      -1.966671       -53.5158
  15   1.0000      -1.165122       -31.7046
  16   1.0000      -1.141126       -31.0516
  17   1.0000      -1.141125       -31.0516
  18   1.0000      -0.147099        -4.0028
  19   0.0000      -0.099614        -2.7106
  20   0.0000      -0.096816        -2.6345
  21   0.0000      -0.096816        -2.6345
  22   0.0000      -0.070020        -1.9053
  23   0.0000      -0.070020        -1.9053

MULLIKEN ATOMIC CHARGES AND SPIN POPULATIONS
--------------------------------------------
   0 Zr:   -0.000000    2.000000
Sum of atomic charges         :   -0.0000000

LOEWDIN ATOMIC CHARGES AND SPIN POPULATIONS
-------------------------------------------
   0 Zr:    0.000000    2.000000

FINAL SINGLE POINT ENERGY     -3643.458423317958

DIPOLE MOMENT
-------------
                                X             Y             Z
Electronic contribution:      0.00000      -0.00000      -0.00000
Nuclear contribution   :      0.00000       0.00000       0.00000
                        -----------------------------------------
Total Dipole Moment    :      0.00000      -0.00000      -0.00000
                        -----------------------------------------
Magnitude (a.u.)       :      0.00000
Magnitude (Debye)      :      0.00000

Rotational constants in cm-1:     0.000000     0.000000     0.000000
Rotational constants in MHz :     0.000000     0.000000     0.000000

                             ****ORCA TERMINATED NORMALLY****
TOTAL RUN TIME: 0 days 0 hours 1 minutes 9 seconds 369 msec
