                         Program Version 5.0.1 -  RELEASE  -
|  1> !uks pbe nori verytightscf soscf notrah defgrid3
|  2>
|  3> %pal
|  4>   nprocs 32
|  5> end
|  6> %coords
|  7>   charge 0
|  8>   mult 3
|  9>   units bohrs
| 10>   coords
| 11>     Zr 0.0 0.0 0.0
| 12>   end
| 13> end
| 14> %basis
| 15>   gtoname "Zr_ugbs.basis"
| 16>   delECP Zr
| 17> end
| 18> %rel
| 19>   method zora
| 20>   modelpot 1, 0, 0, 0
| 21>   c 137.035999084
| 22> endd                         ****END OF INPUT****

CARTESIAN COORDINATES (ANGSTROEM)
---------------------------------
  Zr     0.000000    0.000000    0.000000

 Total Charge           Charge          ....    0
 Multiplicity           Mult            ....    3
 Number of Electrons    NEL             ....   40
 Basis Dimension        Dim             ....  186

ORBITAL ENERGIES
----------------
                 SPIN UP ORBITALS
  NO   OCC          E(Eh)            E(eV)
   0   1.0000    -671.726089    -18278.5961
   1   1.0000     -91.474738     -2489.1542
   2   1.0000     -81.485129     -2217.3231
   3   1.0000     -81.483268     -2217.2725
   4   1.0000     -81.483268     -2217.2724
   5   1.0000     -14.921237      -406.0275
   6   1.0000     -11.694411      -318.2211
   7   1.0000     -11.686391      -318.0029
   8   1.0000     -11.686389      -318.0028
   9   1.0000      -6.400940      -174.1784
  10   1.0000      -6.399959      -174.1517
  11   1.0000      -6.399958      -174.1517
  12   1.0000      -6.393941      -173.9880
  13   1.0000      -6.393941      -173.9880
  14   1.0000      -1.996351       -54.3235
  15   1.0000      -1.185675       -32.2639
  16   1.0000      -1.183449       -32.2033
  17   1.0000      -1.183447       -32.2032
  18   1.0000      -0.166295        -4.5251
  19   1.0000      -0.142249        -3.8708
  20   1.0000      -0.142247        -3.8707
  21   0.0000      -0.118820        -3.2333
  22   0.0000      -0.118819        -3.2332
  23   0.0000      -0.114199        -3.1075
  24   0.0000      -0.043542        -1.1848
  25   0.0000      -0.043542        -1.1848

                 SPIN DOWN ORBITALS
  NO   OCC          E(Eh)            E(eV)
   0   1.0000    -671.726242    -18278.6003
   1   1.0000     -91.470031     -2489.0261
   2   1.0000     -81.483305     -2217.2735
   3   1.0000     -81.479025     -2217.1570
   4   1.0000     -81.479024     -2217.1570
   5   1.0000     -14.918649      -405.9571
   6   1.0000     -11.691213      -318.1341
   7   1.0000     -11.683718      -317.9301
   8   1.0000     -11.683717      -317.9301
   9   1.0000      -6.397694      -174.0901
  10   1.0000      -6.395811      -174.0389
  11   1.0000      -6.395810      -174.0388
  12   1.0000      -6.388708      -173.8456
  13   1.0000      -6.388708      -173.8456
  14   1.0000      -1.966727       -53.5174
  15   1.0000      -1.164610       -31.6907
  16   1.0000      -1.141807       -31.0702
  17   1.0000      -1.141802       -31.0700
  18   1.0000      -0.147440        -4.0121
  19   0.0000      -0.100590        -2.7372
  20   0.0000      -0.097574        -2.6551
  21   0.0000      -0.097571        -2.6550
  22   0.0000      -0.072047        -1.9605
  23   0.0000      -0.072046        -1.9605

MULLIKEN ATOMIC CHARGES AND SPIN POPULATIONS
--------------------------------------------
   0 Zr:   -0.000000    2.000000
Sum of atomic charges         :   -0.0000000

LOEWDIN ATOMIC CHARGES AND SPIN POPULATIONS
-------------------------------------------
   0 Zr:   -0.000000    2.000000

FINAL SINGLE POINT ENERGY     -3643.618615270257

DIPOLE MOMENT
-------------
                                X             Y             Z
Electronic contribution:     -0.00000      -0.00000       0.00000
Nuclear contribution   :      0.00000       0.00000       0.00000
                        -----------------------------------------
Total Dipole Moment    :     -0.00000      -0.00000       0.00000
                        -----------------------------------------
Magnitude (a.u.)       :      0.00000
Magnitude (Debye)      :      0.00000

Rotational constants in cm-1:     0.000000     0.000000     0.000000
Rotational constants in MHz :     0.000000     0.000000     0.000000

                             ****ORCA TERMINATED NORMALLY****
TOTAL RUN TIME: 0 days 0 hours 1 minutes 49 seconds 501 msec
